LAMMPS datafile

1550 atoms
5 atom types
150 bonds
3 bond types
0 angles
0 angle types

0.0 60.0  xlo xhi
0.0 60.0  ylo yhi
0.0 60.0  zlo zhi

Masses

1 39.748
2 0.2
3 39.748
4 0.2
5 39.948

Atoms

1 1 1 0.0 57.827527 15.263277 51.160662
2 1 2 0.0 57.83811380604368 15.310644702893121 51.20689398240549
3 1 3 0.0 58.16601 15.304756 51.526324
4 1 4 0.0 58.17196019397923 15.345365937064916 51.57152234625385
5 2 1 0.0 46.026721 31.215494 57.575405
6 2 2 0.0 46.04547298920978 31.230479491168808 57.60853192012222
7 2 3 0.0 45.981825 31.30662 58.064977
8 2 4 0.0 45.982668922192836 31.35162262839152 58.07297794912724
9 3 1 0.0 7.936585 26.069744 7.691098
10 3 2 0.0 7.953797373660904 26.09494979935796 7.703137498606581
11 3 3 0.0 8.133706 26.381336 8.028817
12 3 4 0.0 8.149458254462257 26.426867781209268 8.070145921569853
13 4 1 0.0 22.181111 6.265833 6.131725
14 4 2 0.0 22.192408471532435 6.286305029382884 6.161527841427493
15 4 3 0.0 22.28814 6.085421 5.677857
16 4 4 0.0 22.309708054184426 6.122637390203517 5.715154038206421
17 5 1 0.0 31.867112 32.568749 13.612469
18 5 2 0.0 31.8918893214404 32.600644355560746 13.62953784889965
19 5 3 0.0 31.454694 32.537613 13.893434
20 5 4 0.0 31.50314513948893 32.58651160751804 13.929823390498813
21 6 1 0.0 16.579764 55.239471 59.994038
22 6 2 0.0 16.618513362497104 55.240123531823656 60.03722090585889
23 6 3 0.0 16.586529 55.289664 59.49661
24 6 4 0.0 16.63049578319337 55.31075160420572 59.50381983352507
25 7 1 0.0 35.490474 45.886668 50.465391
26 7 2 0.0 35.499340681149135 45.920406988735024 50.50566801651653
27 7 3 0.0 35.74901 46.052393 50.07081
28 7 4 0.0 35.77948106956029 46.07332399595014 50.076511289569694
29 8 1 0.0 26.141389 17.256962 52.438836
30 8 2 0.0 26.151051337423056 17.29067274879027 52.452311225639136
31 8 3 0.0 26.051324 16.941945 52.061142
32 8 4 0.0 26.087856147097565 16.972155904762104 52.07503536254291
33 9 1 0.0 29.491843 28.697149 10.548768
34 9 2 0.0 29.522501059804544 28.722189800579322 10.556026058525212
35 9 3 0.0 29.556979 28.648349 10.055436
36 9 4 0.0 29.56011106435321 28.67781369815582 10.073085695423574
37 10 1 0.0 16.642229 14.211442 27.451005
38 10 2 0.0 16.691512583492678 14.21363200736811 27.485809857848867
39 10 3 0.0 16.598982 14.422213 27.902342
40 10 4 0.0 16.626338629513135 14.445905947700528 27.932328275189295
41 11 1 0.0 4.088055 33.295161 10.798573
42 11 2 0.0 4.094934054054232 33.297554375525685 10.82066328681041
43 11 3 0.0 3.691376 33.227385 10.501837
44 11 4 0.0 3.701260679287267 33.250957495798716 10.535103775351638
45 12 1 0.0 57.645295 57.339971 28.372341
46 12 2 0.0 57.64621923610563 57.343680567156206 28.373101585616322
47 12 3 0.0 57.681537 57.275834 28.866884
48 12 4 0.0 57.695767195669845 57.29447939956956 28.873005647247073
49 13 1 0.0 29.756598 59.724554 16.460589
50 13 2 0.0 29.783293174222937 59.77095720972947 16.497095305163466
51 13 3 0.0 29.744039 59.862863 16.940915
52 13 4 0.0 29.78258993667726 59.89553942431244 16.951708115237764
53 14 1 0.0 33.984143 54.323227 0.321395
54 14 2 0.0 34.019614694595056 54.33464691449058 0.3313928797548822
55 14 3 0.0 34.224935 54.008655 0.016333
56 14 4 0.0 34.2412396664116 54.022585805701596 0.04645520280126628
57 15 1 0.0 46.456537 7.010328 16.566508
58 15 2 0.0 46.505684001673814 7.046851759736181 16.61286607064559
59 15 3 0.0 45.987043 7.117457 16.701039
60 15 4 0.0 45.98711456951716 7.148789636015638 16.750678196517267
61 16 1 0.0 52.895071 3.243381 43.409631
62 16 2 0.0 52.91902681839645 3.2677295262001325 43.42891280140453
63 16 3 0.0 52.756952 3.065686 43.856115
64 16 4 0.0 52.79061113431996 3.103145195289468 43.865261916102455
65 17 1 0.0 51.090352 16.440846 15.793145
66 17 2 0.0 51.11336012740596 16.474896023552674 15.836201550055184
67 17 3 0.0 51.259988 16.756051 15.444047
68 17 4 0.0 51.26449908383279 16.79206452691498 15.446365029692142
69 18 1 0.0 7.029081 20.721776 18.149496
70 18 2 0.0 7.0673858320548595 20.75158002908671 18.174536430029708
71 18 3 0.0 6.759647 21.111782 17.990435
72 18 4 0.0 6.787589363171525 21.126190913169477 17.997636821835705
73 19 1 0.0 22.854571 0.642319 59.066489
74 19 2 0.0 22.887095036561146 0.6600206172479736 59.11022624588261
75 19 3 0.0 22.645836 0.200833 58.95916
76 19 4 0.0 22.66160323375885 0.20852618835607206 59.003986322132114
77 20 1 0.0 24.889419 17.590062 16.995625
78 20 2 0.0 24.921149022060238 17.600072693070466 17.035243939435794
79 20 3 0.0 24.422499 17.541393 17.167722
80 20 4 0.0 24.446871681006478 17.54789801500534 17.20374149948336
81 21 1 0.0 22.935506 11.694744 39.969486
82 21 2 0.0 22.949325995252224 11.730050251961465 39.998598169447476
83 21 3 0.0 23.254726 12.075655 39.914668
84 21 4 0.0 23.270422877380778 12.079017192574977 39.92582711217974
85 22 1 0.0 3.404658 55.637005 0.791093
86 22 2 0.0 3.4077673339581662 55.68613420276637 0.8366166462676367
87 22 3 0.0 3.587209 55.886107 1.184314
88 22 4 0.0 3.5943368676359837 55.89361304461435 1.2064293521520093
89 23 1 0.0 46.950679 30.963387 24.171008
90 23 2 0.0 46.98715249838226 30.97450232805447 24.190296563179047
91 23 3 0.0 46.830658 30.58688 24.477337
92 23 4 0.0 46.871692786733206 30.62688962597651 24.523703155231345
93 24 1 0.0 19.611034 50.474725 46.913882
94 24 2 0.0 19.635877831730742 50.50186615003622 46.948036297990775
95 24 3 0.0 20.013174 50.479337 47.210971
96 24 4 0.0 20.03323741183547 50.51740223042381 47.25903040844168
97 25 1 0.0 33.846698 33.168651 34.02626
98 25 2 0.0 33.88046196276413 33.17095060640438 34.067713860849395
99 25 3 0.0 34.341286 33.113976 33.977343
100 25 4 0.0 34.36534055787742 33.124689632552695 34.017321009795296
101 26 1 0.0 15.066554 25.355323 21.443012
102 26 2 0.0 15.10666954668415 25.402673352758367 21.47508247453012
103 26 3 0.0 14.890976 25.174361 21.011242
104 26 4 0.0 14.90475977079905 25.176932023468666 21.057992302769552
105 27 1 0.0 2.787437 44.614435 46.454055
106 27 2 0.0 2.801475701383126 44.62683703737471 46.47054267919064
107 27 3 0.0 3.023295 44.203253 46.294994
108 27 4 0.0 3.0372487640968346 44.21724653625768 46.29509791495951
109 28 1 0.0 32.002669 25.623987 48.878375
110 28 2 0.0 32.01401921517682 25.62840974091745 48.89729098628431
111 28 3 0.0 32.387362 25.305635 48.852609
112 28 4 0.0 32.43095385208802 25.315961208949133 48.88840094483811
113 29 1 0.0 16.527484 0.071855 34.106886
114 29 2 0.0 16.56563300546338 0.0887708328505678 34.15339550446076
115 29 3 0.0 16.510063 0.008213 33.611258
116 29 4 0.0 16.55147645686445 0.049928143891914994 33.612480421721905
117 30 1 0.0 49.034211 23.4778 57.039333
118 30 2 0.0 49.03551150413239 23.48169553026947 57.05704930589055
119 30 3 0.0 49.081968 23.169644 57.430177
120 30 4 0.0 49.12438807519725 23.198874714676585 57.452888989613626
121 31 1 0.0 43.14518 13.442429 5.663876
122 31 2 0.0 43.15831928881922 13.467125929673262 5.67445998674258
123 31 3 0.0 43.230448 13.090333 5.319263
124 31 4 0.0 43.276776154166676 13.106962210212314 5.348319774687858
125 32 1 0.0 28.118468 5.755229 23.828133
126 32 2 0.0 28.143273637289155 5.796736856839797 23.84417413338996
127 32 3 0.0 28.074305 6.050941 23.427379
128 32 4 0.0 28.10519872066046 6.098157548885206 23.456921523026043
129 33 1 0.0 37.091384 29.231561 46.457927
130 33 2 0.0 37.12401239240146 29.26788560204012 46.45827793228188
131 33 3 0.0 36.965221 29.077938 46.916711
132 33 4 0.0 36.982857456593536 29.106100157734815 46.93216836505011
133 34 1 0.0 15.423799 56.280083 55.446213
134 34 2 0.0 15.46258091151825 56.29841938411989 55.49172737991704
135 34 3 0.0 15.477116 56.27274 55.943308
136 34 4 0.0 15.508873837277074 56.292706757314434 55.99221342982362
137 35 1 0.0 26.634969 51.407233 39.931777
138 35 2 0.0 26.667066139714077 51.423475908306386 39.94144995939739
139 35 3 0.0 26.639988 51.441791 39.432998
140 35 4 0.0 26.646853948498926 51.47166908270858 39.44785593549584
141 36 1 0.0 14.30408 15.708416 50.566467
142 36 2 0.0 14.328831626775939 15.737775420218053 50.58483532030732
143 36 3 0.0 14.043763 15.6256 50.985247
144 36 4 0.0 14.060637914628689 15.664755231520948 51.009800042484926
145 37 1 0.0 27.369396 4.382127 41.592624
146 37 2 0.0 27.39665664433217 4.420347728027872 41.60242400280459
147 37 3 0.0 27.130988 4.818598 41.541102
148 37 4 0.0 27.172913339931107 4.823599371966137 41.54828137616181
149 38 1 0.0 10.758238 6.122385 5.03252
150 38 2 0.0 10.793135677538729 6.129000793671226 5.03432847028628
151 38 3 0.0 11.116193 6.458984 5.125091
152 38 4 0.0 11.122033719340672 6.494695263571984 5.158443257594288
153 39 1 0.0 42.599693 55.60654 53.056317
154 39 2 0.0 42.62478711865463 55.65578932220905 53.065469063137876
155 39 3 0.0 42.407663 55.990522 53.312603
156 39 4 0.0 42.456803197910865 55.992823731180415 53.35047226447379
157 40 1 0.0 50.664141 27.259556 31.487671
158 40 2 0.0 50.67669809720297 27.26657698193952 31.52878908795268
159 40 3 0.0 50.243535 27.05505 31.664499
160 40 4 0.0 50.26669454402917 27.056328132599507 31.68284085159551
161 41 1 0.0 57.749817 47.499896 8.941692
162 41 2 0.0 57.776036462759954 47.540264896932996 8.965589267353737
163 41 3 0.0 58.120088 47.485968 9.277409
164 41 4 0.0 58.15449098499762 47.49485191997184 9.304477970558928
165 42 1 0.0 4.896348 44.769655 28.056353
166 42 2 0.0 4.925874570985942 44.81632547322978 28.097083988701247
167 42 3 0.0 5.38217 44.875066 28.109884
168 42 4 0.0 5.421851605465578 44.90136745716772 28.155267548641074
169 43 1 0.0 29.117438 34.760185 6.352545
170 43 2 0.0 29.12872576792709 34.80305849369264 6.360469493749366
171 43 3 0.0 29.301199 34.697637 6.813327
172 43 4 0.0 29.35098758730429 34.71874085475062 6.848788862699973
173 44 1 0.0 33.440164 2.854737 41.729396
174 44 2 0.0 33.456623420121126 2.901117396496434 41.76699658048935
175 44 3 0.0 33.693451 2.573001 41.403098
176 44 4 0.0 33.71966948212056 2.6138628222627367 41.4215742121755
177 45 1 0.0 51.985088 59.8069 5.520557
178 45 2 0.0 52.0048645092347 59.82022755474812 5.544337743315924
179 45 3 0.0 52.417174 59.628932 5.342711
180 45 4 0.0 52.42089432508112 59.67757141767525 5.347342626324731
181 46 1 0.0 57.188929 59.993901 10.729171
182 46 2 0.0 57.208680538660325 60.0014227800775 10.76273395895994
183 46 3 0.0 57.259138 59.822607 11.193637
184 46 4 0.0 57.27198504921331 59.84563698863159 11.202885309738939
185 47 1 0.0 36.056139 46.313625 7.219943
186 47 2 0.0 36.05635705867533 46.35708190728675 7.23803719926479
187 47 3 0.0 35.901104 45.857651 7.354301
188 47 4 0.0 35.94603178555358 45.860369074166854 7.392116353352356
189 48 1 0.0 25.6946 29.321597 8.270632
190 48 2 0.0 25.737391560655347 29.32422802598601 8.304152128522638
191 48 3 0.0 25.553124 29.465093 8.728227
192 48 4 0.0 25.57229694637402 29.47396300700533 8.773292896922912
193 49 1 0.0 49.498428 58.192587 25.705735
194 49 2 0.0 49.50766558462633 58.221631946616895 25.730964517453227
195 49 3 0.0 49.918571 58.325285 25.942107
196 49 4 0.0 49.9555942947488 58.34022949400603 25.965912669156133
197 50 1 0.0 29.992837 42.7269 7.012319
198 50 2 0.0 30.023504985898096 42.73460675334756 7.037210065539421
199 50 3 0.0 30.426018 42.907531 7.184733
200 50 4 0.0 30.468874311746276 42.921505796305205 7.191146292107676
201 51 5 0.0 36.485295 1.290108 46.385416
202 52 5 0.0 25.782725 58.648579 2.102825
203 53 5 0.0 23.872272 3.201646 17.783229
204 54 5 0.0 23.114456 56.921006 43.037367
205 55 5 0.0 39.003001 16.799722 5.963677
206 56 5 0.0 20.585407 29.752441 7.024658
207 57 5 0.0 32.414234 14.521497 5.47339
208 58 5 0.0 4.211087 34.237104 21.192502
209 59 5 0.0 50.65554 40.215741 10.014318
210 60 5 0.0 52.414123 33.205789 37.29204
211 61 5 0.0 31.306361 23.988992 52.591624
212 62 5 0.0 22.617587 23.79826 14.350062
213 63 5 0.0 30.182968 41.889665 3.201884
214 64 5 0.0 11.613804 13.824188 47.354673
215 65 5 0.0 43.181792 18.56134 29.726466
216 66 5 0.0 54.253324 47.136523 49.00504
217 67 5 0.0 58.165481 12.009055 36.760309
218 68 5 0.0 33.594978 59.298093 7.526519
219 69 5 0.0 47.530368 45.780454 40.588443
220 70 5 0.0 17.802291 25.686916 18.515405
221 71 5 0.0 10.747382 20.955833 30.651762
222 72 5 0.0 35.253552 5.981571 45.48053
223 73 5 0.0 52.592527 22.035669 59.781811
224 74 5 0.0 58.738838 22.239378 15.189738
225 75 5 0.0 40.949058 20.909489 55.924151
226 76 5 0.0 0.213457 57.57942 14.935226
227 77 5 0.0 27.661669 4.398417 37.391529
228 78 5 0.0 50.308134 36.957948 47.596809
229 79 5 0.0 45.875551 53.317363 21.328208
230 80 5 0.0 24.785667 30.218258 15.454425
231 81 5 0.0 36.090509 5.41114 2.455223
232 82 5 0.0 20.686982 2.017897 15.653287
233 83 5 0.0 6.737785 55.708799 38.803255
234 84 5 0.0 21.984714 5.382949 1.420153
235 85 5 0.0 59.178847 9.284114 4.24316
236 86 5 0.0 38.079904 0.000272 34.419912
237 87 5 0.0 54.746226 52.894999 50.231223
238 88 5 0.0 7.729704 39.431792 23.02932
239 89 5 0.0 44.942014 39.715018 28.104924
240 90 5 0.0 33.961723 45.161113 32.864749
241 91 5 0.0 45.695442 25.588512 38.986795
242 92 5 0.0 55.221358 27.316675 35.388028
243 93 5 0.0 19.681932 27.401374 41.263663
244 94 5 0.0 6.857752 20.651965 38.585966
245 95 5 0.0 35.378128 3.969916 21.718953
246 96 5 0.0 55.26361 45.084935 18.639903
247 97 5 0.0 42.767682 40.047097 16.893564
248 98 5 0.0 35.418947 0.955596 1.194727
249 99 5 0.0 19.2153 32.837748 42.760357
250 100 5 0.0 26.086173 41.660191 5.955532
251 101 5 0.0 49.580992 22.183028 26.916914
252 102 5 0.0 30.28783 35.758602 35.825559
253 103 5 0.0 8.101366 52.742386 20.89971
254 104 5 0.0 53.297754 25.181936 49.481868
255 105 5 0.0 20.773553 32.284605 35.681189
256 106 5 0.0 4.617234 52.695612 55.807098
257 107 5 0.0 18.968896 59.99594 9.438731
258 108 5 0.0 18.260389 18.097012 43.92367
259 109 5 0.0 8.72566 26.913258 22.428616
260 110 5 0.0 11.607254 44.765311 50.888822
261 111 5 0.0 53.962972 37.378735 26.393626
262 112 5 0.0 31.871795 17.773644 58.267343
263 113 5 0.0 57.917594 20.73646 8.648604
264 114 5 0.0 46.971796 9.86292 9.701195
265 115 5 0.0 27.850381 5.41463 28.426511
266 116 5 0.0 0.022633 1.658578 31.825122
267 117 5 0.0 51.075148 54.926131 7.054253
268 118 5 0.0 38.569691 3.347534 10.774838
269 119 5 0.0 40.990542 6.146822 41.499712
270 120 5 0.0 0.882506 40.927367 4.244388
271 121 5 0.0 37.493295 0.028269 52.182955
272 122 5 0.0 12.859144 27.553966 52.910616
273 123 5 0.0 31.937531 51.185705 40.639736
274 124 5 0.0 32.736053 17.574938 0.803188
275 125 5 0.0 17.881671 36.516154 11.90996
276 126 5 0.0 34.547094 26.761079 42.45513
277 127 5 0.0 1.528271 53.736423 27.32909
278 128 5 0.0 52.970977 23.940566 39.253652
279 129 5 0.0 23.652853 10.963548 52.623624
280 130 5 0.0 41.041241 23.788483 40.6884
281 131 5 0.0 31.321323 24.994168 13.48428
282 132 5 0.0 59.667674 16.289462 47.146654
283 133 5 0.0 35.325083 53.244108 8.107358
284 134 5 0.0 11.866763 47.412778 58.191888
285 135 5 0.0 12.404187 3.923031 54.561106
286 136 5 0.0 43.119024 50.537821 36.633649
287 137 5 0.0 43.715658 23.788347 52.259261
288 138 5 0.0 53.220191 49.984486 2.098781
289 139 5 0.0 5.648496 40.203629 4.665295
290 140 5 0.0 42.574419 37.769436 6.173594
291 141 5 0.0 26.711571 2.637675 47.699683
292 142 5 0.0 0.02042 1.366639 20.13876
293 143 5 0.0 8.10644 24.1609 13.823555
294 144 5 0.0 40.694872 3.854012 56.203699
295 145 5 0.0 10.262437 27.508013 11.396712
296 146 5 0.0 48.45555 20.227853 59.853525
297 147 5 0.0 59.913717 0.843251 12.240622
298 148 5 0.0 44.234247 21.425438 36.515074
299 149 5 0.0 57.80909 39.87668 13.168772
300 150 5 0.0 39.930912 8.856584 55.479641
301 151 5 0.0 59.568805 51.231814 9.227183
302 152 5 0.0 21.110607 46.760283 13.126095
303 153 5 0.0 42.600943 43.868992 18.43778
304 154 5 0.0 7.068416 56.126026 46.516466
305 155 5 0.0 41.163413 59.988443 12.730449
306 156 5 0.0 53.128614 4.281873 57.787033
307 157 5 0.0 50.106518 54.458549 23.911207
308 158 5 0.0 22.002962 41.56882 45.646219
309 159 5 0.0 9.905995 12.735101 4.935748
310 160 5 0.0 27.488178 34.481791 22.278425
311 161 5 0.0 57.909556 9.192523 27.264577
312 162 5 0.0 55.131134 28.24955 5.448105
313 163 5 0.0 35.14716 56.684989 55.130562
314 164 5 0.0 26.414661 19.560573 25.489347
315 165 5 0.0 11.274427 18.626902 5.421805
316 166 5 0.0 0.833377 20.983871 1.5287
317 167 5 0.0 38.788929 32.417904 49.497435
318 168 5 0.0 13.924159 40.99181 11.873527
319 169 5 0.0 11.090329 6.517564 17.985933
320 170 5 0.0 16.067569 11.104762 22.76904
321 171 5 0.0 29.290197 35.469215 31.293564
322 172 5 0.0 21.071347 45.811731 24.799726
323 173 5 0.0 43.845816 50.894618 3.931343
324 174 5 0.0 37.309829 38.975603 30.16767
325 175 5 0.0 42.904553 49.401345 32.544428
326 176 5 0.0 9.759097 35.144648 39.63692
327 177 5 0.0 29.598444 9.529662 13.070965
328 178 5 0.0 28.385412 32.416582 9.81965
329 179 5 0.0 56.479333 19.298865 43.986572
330 180 5 0.0 12.180987 43.067915 43.539441
331 181 5 0.0 26.033103 44.754059 20.589212
332 182 5 0.0 25.973821 27.913956 48.913159
333 183 5 0.0 41.74666 10.319268 58.543364
334 184 5 0.0 36.858528 31.429109 24.454834
335 185 5 0.0 36.987659 41.018182 46.276161
336 186 5 0.0 50.372485 47.089287 2.670439
337 187 5 0.0 34.455063 23.737326 34.544313
338 188 5 0.0 12.226318 55.056125 6.375821
339 189 5 0.0 43.906615 50.596821 24.522238
340 190 5 0.0 49.867867 21.521237 14.507593
341 191 5 0.0 3.209954 12.065146 49.527737
342 192 5 0.0 43.126078 25.013252 27.324532
343 193 5 0.0 34.923993 41.63116 1.264981
344 194 5 0.0 47.249155 17.417357 1.47486
345 195 5 0.0 44.033241 15.628657 48.086614
346 196 5 0.0 22.937141 38.152524 30.911714
347 197 5 0.0 17.491643 59.961997 34.365909
348 198 5 0.0 34.721015 58.108893 32.81935
349 199 5 0.0 59.187396 31.934242 10.028282
350 200 5 0.0 17.805289 43.338663 52.557138
351 201 5 0.0 40.587725 48.432373 4.365173
352 202 5 0.0 41.910125 23.234776 45.045825
353 203 5 0.0 27.292139 49.357871 19.814203
354 204 5 0.0 54.148857 7.443098 38.114572
355 205 5 0.0 53.631544 13.96331 53.240376
356 206 5 0.0 10.123249 5.149466 45.294801
357 207 5 0.0 26.895034 35.206361 49.646931
358 208 5 0.0 49.871804 5.483008 48.611566
359 209 5 0.0 3.242513 10.767649 34.441503
360 210 5 0.0 4.330908 26.518947 15.464423
361 211 5 0.0 39.323326 55.305043 38.306191
362 212 5 0.0 1.981034 20.780973 9.815886
363 213 5 0.0 49.598983 6.346548 3.271478
364 214 5 0.0 10.869235 57.941887 16.560907
365 215 5 0.0 45.336823 48.22445 52.183425
366 216 5 0.0 26.129191 49.951884 47.804416
367 217 5 0.0 36.014225 26.367985 5.763866
368 218 5 0.0 15.716467 19.345405 30.969221
369 219 5 0.0 6.195068 45.612936 51.255031
370 220 5 0.0 22.592276 53.551526 31.7791
371 221 5 0.0 33.229659 9.710549 45.703383
372 222 5 0.0 57.098758 44.204398 43.07187
373 223 5 0.0 33.157758 42.08378 26.253085
374 224 5 0.0 25.897441 21.914917 10.921356
375 225 5 0.0 20.561814 54.99155 1.287157
376 226 5 0.0 32.376822 41.56484 49.566002
377 227 5 0.0 9.919861 37.560864 56.897663
378 228 5 0.0 8.228993 59.93111 53.431747
379 229 5 0.0 56.3716 12.50972 46.275671
380 230 5 0.0 55.156299 36.97849 10.983887
381 231 5 0.0 20.572174 33.660886 15.41743
382 232 5 0.0 49.464075 8.473923 20.529319
383 233 5 0.0 39.621041 30.887225 33.447136
384 234 5 0.0 53.245488 34.994999 33.259999
385 235 5 0.0 1.1359 59.457058 33.48119
386 236 5 0.0 48.695901 22.236091 35.664065
387 237 5 0.0 19.823006 17.812488 31.604174
388 238 5 0.0 27.179376 35.147428 2.025962
389 239 5 0.0 9.084139 26.975301 2.030488
390 240 5 0.0 33.059088 7.398967 19.239289
391 241 5 0.0 18.856057 28.294355 23.603543
392 242 5 0.0 19.145305 48.264402 39.495365
393 243 5 0.0 52.092972 59.944957 59.888013
394 244 5 0.0 30.371305 42.672537 30.647738
395 245 5 0.0 32.989112 14.549071 45.537768
396 246 5 0.0 18.311326 8.262519 59.017794
397 247 5 0.0 43.13925 56.09024 13.805363
398 248 5 0.0 51.175091 3.986901 39.24392
399 249 5 0.0 58.9214 27.356403 52.335009
400 250 5 0.0 16.425789 47.327302 25.272824
401 251 5 0.0 29.076341 25.257487 32.690921
402 252 5 0.0 16.69252 50.091697 5.882355
403 253 5 0.0 9.857855 50.200135 15.092467
404 254 5 0.0 41.397212 13.798626 24.931062
405 255 5 0.0 48.794734 49.88668 41.532036
406 256 5 0.0 43.214039 33.062891 7.947618
407 257 5 0.0 31.638365 24.455107 1.372565
408 258 5 0.0 36.005144 37.152069 0.984285
409 259 5 0.0 40.786868 26.067043 54.261766
410 260 5 0.0 47.360444 29.794901 28.280456
411 261 5 0.0 27.037174 38.408812 10.875311
412 262 5 0.0 15.277894 17.61693 18.798148
413 263 5 0.0 1.900804 22.328323 18.484564
414 264 5 0.0 23.428078 59.97878 30.491638
415 265 5 0.0 37.646094 7.152742 39.393002
416 266 5 0.0 54.358588 9.110554 13.061287
417 267 5 0.0 3.724116 23.11869 5.161441
418 268 5 0.0 36.550755 24.520726 17.006405
419 269 5 0.0 55.741979 56.548546 8.124279
420 270 5 0.0 59.995814 10.641121 44.372408
421 271 5 0.0 55.661252 51.395511 8.72583
422 272 5 0.0 51.109581 31.941196 30.114478
423 273 5 0.0 8.06698 41.304925 41.482023
424 274 5 0.0 17.865175 33.699786 6.899175
425 275 5 0.0 32.677782 7.770072 29.972518
426 276 5 0.0 6.687879 3.631326 43.575477
427 277 5 0.0 24.298221 58.196935 26.610245
428 278 5 0.0 59.61197 48.293158 59.266176
429 279 5 0.0 36.959078 14.824347 9.850529
430 280 5 0.0 0.551622 2.062423 53.974426
431 281 5 0.0 0.836085 56.144597 36.332195
432 282 5 0.0 1.740525 30.58023 56.358823
433 283 5 0.0 13.328517 2.212018 18.503747
434 284 5 0.0 49.981671 20.176351 53.697676
435 285 5 0.0 42.923078 12.321249 32.615618
436 286 5 0.0 27.51128 26.77679 26.052478
437 287 5 0.0 46.760009 43.190907 49.824368
438 288 5 0.0 9.892171 45.888666 47.197562
439 289 5 0.0 20.986956 15.922593 37.236948
440 290 5 0.0 19.815175 28.811916 46.826426
441 291 5 0.0 45.595741 24.600642 7.39372
442 292 5 0.0 18.14917 38.534841 33.11646
443 293 5 0.0 36.090679 40.657849 50.887427
444 294 5 0.0 35.256332 11.571859 19.324329
445 295 5 0.0 37.959394 48.108392 31.026674
446 296 5 0.0 59.799022 22.146477 44.926853
447 297 5 0.0 26.021972 12.188867 7.676972
448 298 5 0.0 12.307744 13.027013 53.26556
449 299 5 0.0 21.136377 14.799197 11.216207
450 300 5 0.0 56.78496 39.203047 59.274451
451 301 5 0.0 34.739273 32.270608 0.018156
452 302 5 0.0 37.180293 38.186645 38.253843
453 303 5 0.0 38.592044 52.819091 34.299303
454 304 5 0.0 22.356196 40.959213 9.409516
455 305 5 0.0 38.327435 32.761808 14.079777
456 306 5 0.0 38.37745 51.323432 57.075889
457 307 5 0.0 23.853223 11.531654 47.474976
458 308 5 0.0 51.855387 33.452939 12.465452
459 309 5 0.0 53.736287 51.198701 25.286925
460 310 5 0.0 32.901106 10.255209 16.406466
461 311 5 0.0 9.354441 42.653807 56.554222
462 312 5 0.0 1.213392 55.76746 21.521406
463 313 5 0.0 29.437844 13.609509 3.204954
464 314 5 0.0 4e-06 40.940618 10.705089
465 315 5 0.0 57.600096 10.573224 16.835357
466 316 5 0.0 59.640604 47.62242 33.924428
467 317 5 0.0 29.555012 57.632213 37.657748
468 318 5 0.0 59.943509 47.955352 12.937637
469 319 5 0.0 50.178783 48.924031 37.843728
470 320 5 0.0 12.67989 32.979418 35.216218
471 321 5 0.0 13.18092 34.172098 47.171239
472 322 5 0.0 57.014601 42.087218 16.97543
473 323 5 0.0 25.348592 39.80482 38.815841
474 324 5 0.0 28.769451 6.691379 10.588485
475 325 5 0.0 14.4205 44.946685 19.954385
476 326 5 0.0 15.815813 23.728503 8.688487
477 327 5 0.0 45.927822 38.2253 48.660838
478 328 5 0.0 5.143793 3.000378 5.571074
479 329 5 0.0 56.229965 20.33561 36.650827
480 330 5 0.0 32.025968 4.560494 15.953271
481 331 5 0.0 15.606214 51.08241 23.48707
482 332 5 0.0 4.735158 19.420921 31.068632
483 333 5 0.0 58.972376 37.832796 2.700451
484 334 5 0.0 39.456804 34.56857 25.452612
485 335 5 0.0 49.844557 41.684759 45.453651
486 336 5 0.0 32.275705 9.68556 36.493668
487 337 5 0.0 20.106242 35.389616 3.796298
488 338 5 0.0 0.350293 27.941707 48.520918
489 339 5 0.0 20.765375 41.892387 22.609815
490 340 5 0.0 22.122801 31.667554 20.603304
491 341 5 0.0 47.656973 47.28526 57.579147
492 342 5 0.0 33.021814 32.713224 7.246585
493 343 5 0.0 18.895323 23.763468 44.431879
494 344 5 0.0 30.206139 50.0208 44.515897
495 345 5 0.0 59.983073 7.539854 13.635697
496 346 5 0.0 13.756565 40.032605 57.272185
497 347 5 0.0 29.958241 8.700728 48.57781
498 348 5 0.0 3.236357 29.822337 39.110813
499 349 5 0.0 0.294387 49.225402 39.18347
500 350 5 0.0 33.990894 48.611773 30.111359
501 351 5 0.0 10.450642 20.547977 13.61496
502 352 5 0.0 48.72092 26.537526 16.758714
503 353 5 0.0 8.268765 26.996123 17.258048
504 354 5 0.0 35.338261 25.66556 46.169904
505 355 5 0.0 45.636402 29.720626 33.511155
506 356 5 0.0 5.300692 42.457924 11.99188
507 357 5 0.0 57.654397 13.556422 3.091686
508 358 5 0.0 24.022874 50.7406 58.42639
509 359 5 0.0 25.049437 35.631813 19.102427
510 360 5 0.0 41.856104 4.036449 38.398158
511 361 5 0.0 46.668781 34.200634 53.327762
512 362 5 0.0 17.53832 4.827923 31.530956
513 363 5 0.0 46.668456 54.040381 27.285472
514 364 5 0.0 52.738921 47.724254 16.584153
515 365 5 0.0 25.830207 12.991172 11.442183
516 366 5 0.0 15.932852 25.223247 54.530184
517 367 5 0.0 19.362346 0.042255 28.035054
518 368 5 0.0 27.865823 14.806236 36.150134
519 369 5 0.0 33.80434 40.470263 16.157049
520 370 5 0.0 43.650564 14.616493 40.626376
521 371 5 0.0 24.267087 13.604104 24.698879
522 372 5 0.0 54.45889 11.312595 56.34491
523 373 5 0.0 34.50288 58.352096 3.26212
524 374 5 0.0 41.844971 9.175632 44.220634
525 375 5 0.0 38.657634 21.23749 38.478926
526 376 5 0.0 5.37572 58.767525 58.863383
527 377 5 0.0 12.85579 51.349447 49.498282
528 378 5 0.0 16.703158 43.550248 27.604601
529 379 5 0.0 18.411178 59.624944 41.844034
530 380 5 0.0 56.807352 24.267054 39.24102
531 381 5 0.0 2.734156 14.776013 17.269668
532 382 5 0.0 32.944579 54.630759 11.139405
533 383 5 0.0 26.763217 18.640057 30.875558
534 384 5 0.0 6.622611 10.945558 7.841765
535 385 5 0.0 26.760692 10.149675 25.469452
536 386 5 0.0 52.541276 33.666872 26.402988
537 387 5 0.0 42.983384 59.578899 20.609758
538 388 5 0.0 42.930712 43.032846 57.211042
539 389 5 0.0 40.303325 10.258869 1.470897
540 390 5 0.0 42.173049 9.35768 51.862902
541 391 5 0.0 44.513088 10.911163 47.309671
542 392 5 0.0 20.507288 6.917842 19.236175
543 393 5 0.0 41.767889 29.821544 47.072812
544 394 5 0.0 6.172709 45.776601 39.930716
545 395 5 0.0 2.966611 0.71897 34.128336
546 396 5 0.0 2.094992 11.909681 23.788248
547 397 5 0.0 26.456635 50.879958 51.893822
548 398 5 0.0 45.360586 31.288696 46.715895
549 399 5 0.0 0.130292 50.073477 26.296589
550 400 5 0.0 27.732605 56.097102 47.931775
551 401 5 0.0 18.018229 39.686591 24.747898
552 402 5 0.0 32.446963 31.35526 3.580985
553 403 5 0.0 23.605842 19.920243 29.08255
554 404 5 0.0 1.008852 33.70247 16.363284
555 405 5 0.0 59.970456 54.227608 56.460805
556 406 5 0.0 55.601554 4.594505 14.002056
557 407 5 0.0 26.051422 3.693279 52.031687
558 408 5 0.0 54.750972 49.799077 28.753913
559 409 5 0.0 37.864827 9.161302 23.554923
560 410 5 0.0 38.696982 19.385502 23.724179
561 411 5 0.0 9.948578 44.247267 27.16352
562 412 5 0.0 24.320988 30.436135 33.546147
563 413 5 0.0 59.697528 51.518252 18.121351
564 414 5 0.0 13.876288 39.168254 41.382838
565 415 5 0.0 48.67478 24.55905 48.237346
566 416 5 0.0 12.511271 37.919825 9.705144
567 417 5 0.0 8.189542 50.465398 45.059781
568 418 5 0.0 16.078637 15.767819 2.410386
569 419 5 0.0 2.119451 15.678649 36.509591
570 420 5 0.0 9.490923 36.097476 25.40478
571 421 5 0.0 3.227178 40.647352 17.239181
572 422 5 0.0 32.356018 42.130007 45.120053
573 423 5 0.0 17.7141 54.741105 52.111708
574 424 5 0.0 27.742992 29.082035 39.569651
575 425 5 0.0 24.102768 35.474132 11.505801
576 426 5 0.0 55.182164 56.697682 3.282595
577 427 5 0.0 3.36114 31.962049 53.069709
578 428 5 0.0 34.574595 11.501864 40.309831
579 429 5 0.0 12.897047 21.577859 21.491418
580 430 5 0.0 49.466007 40.557745 36.300578
581 431 5 0.0 22.895046 12.47515 14.900684
582 432 5 0.0 38.998662 57.763699 5.110438
583 433 5 0.0 19.876302 7.633754 15.042614
584 434 5 0.0 52.100568 49.625795 43.596722
585 435 5 0.0 52.672954 12.204242 2.781514
586 436 5 0.0 45.737288 20.162238 22.756349
587 437 5 0.0 48.009179 57.672023 37.542758
588 438 5 0.0 51.375742 35.825069 5.436271
589 439 5 0.0 11.425187 16.247948 40.501638
590 440 5 0.0 27.015544 31.327956 52.60816
591 441 5 0.0 41.767086 51.723203 55.109287
592 442 5 0.0 18.761715 28.661716 36.67929
593 443 5 0.0 12.81971 39.130934 34.167995
594 444 5 0.0 57.634029 14.777718 27.646386
595 445 5 0.0 53.418577 11.796866 30.593581
596 446 5 0.0 32.375371 52.273217 52.07061
597 447 5 0.0 15.012444 28.250882 40.617808
598 448 5 0.0 18.61993 51.965274 28.063672
599 449 5 0.0 35.753779 30.596714 54.718815
600 450 5 0.0 59.942571 8.477821 19.059014
601 451 5 0.0 22.380761 39.605562 16.021902
602 452 5 0.0 43.865942 2.036585 31.68076
603 453 5 0.0 8.605571 48.302199 3.306741
604 454 5 0.0 7.317754 3.926945 53.202028
605 455 5 0.0 9.68583 54.809169 12.784288
606 456 5 0.0 54.572165 44.991508 30.49229
607 457 5 0.0 17.134586 42.694358 6.236378
608 458 5 0.0 43.24212 29.330273 12.000121
609 459 5 0.0 50.628836 5.954452 13.266968
610 460 5 0.0 44.752343 57.655148 32.03595
611 461 5 0.0 18.98379 52.79875 24.297431
612 462 5 0.0 53.993275 41.608828 12.512759
613 463 5 0.0 42.060984 27.437653 8.183127
614 464 5 0.0 13.113856 59.563254 1.596751
615 465 5 0.0 16.877257 5.759308 26.908233
616 466 5 0.0 11.624824 24.216147 15.590913
617 467 5 0.0 40.081563 11.457269 29.739382
618 468 5 0.0 22.562133 11.633667 2.416818
619 469 5 0.0 7.776221 0.01602 11.379156
620 470 5 0.0 45.62094 28.272868 41.787666
621 471 5 0.0 15.71028 1.895314 14.200409
622 472 5 0.0 46.620943 48.469172 22.314628
623 473 5 0.0 48.614801 5.74294 54.563747
624 474 5 0.0 45.579115 34.236327 43.972421
625 475 5 0.0 39.021696 3.460652 35.820401
626 476 5 0.0 5.578822 55.650615 34.982394
627 477 5 0.0 21.275112 27.586918 50.172243
628 478 5 0.0 27.175037 31.359514 5.321808
629 479 5 0.0 53.469916 22.953178 20.148801
630 480 5 0.0 53.483925 56.865337 11.250731
631 481 5 0.0 25.76738 0.064127 16.188437
632 482 5 0.0 22.952647 0.513565 32.812309
633 483 5 0.0 45.420612 51.68302 11.115631
634 484 5 0.0 23.584402 50.855334 0.197035
635 485 5 0.0 50.863018 11.872794 37.993671
636 486 5 0.0 29.005274 59.845276 34.119805
637 487 5 0.0 17.211976 48.816605 30.967551
638 488 5 0.0 4.491237 7.768272 18.355067
639 489 5 0.0 49.08165 19.341121 9.46084