LAMMPS datafile

1474 atoms
9 atom types
93 bonds
6 bond types
0 angles
0 angle types

0.0 60.0  xlo xhi
0.0 60.0  ylo yhi
0.0 60.0  zlo zhi

Masses

1 39.748
2 0.2
3 39.748
4 0.2
5 39.948
6 39.748
7 0.2
8 39.748
9 0.2

Atoms

1 1 1 0.0 55.310881 9.703257 55.937585
2 1 2 0.0 55.330139159268704 9.737765593887577 55.94884371961492
3 1 3 0.0 55.016022 9.765155 56.336618
4 1 4 0.0 55.025642401130526 9.797593820605131 56.351164341403376
5 2 1 0.0 39.875815 18.804354 48.666465
6 2 2 0.0 39.88777228717691 18.832904887679852 48.70036910531358
7 2 3 0.0 39.751701 19.120513 49.033397
8 2 4 0.0 39.76518338818017 19.131211447366695 49.07373987890498
9 3 1 0.0 51.236433 20.179057 31.058885
10 3 2 0.0 51.24069624135749 20.227814274656474 31.088734845706387
11 3 3 0.0 51.169139 20.030522 31.531546
12 3 4 0.0 51.20022684737057 20.043442745809887 31.53917656284184
13 4 1 0.0 56.933622 40.665403 11.112821
14 4 2 0.0 56.94415782837217 40.70899649054101 11.155969043716578
15 4 3 0.0 57.047795 40.551876 11.586188
16 4 4 0.0 57.08538086898089 40.59573625919061 11.59161417183301
17 5 1 0.0 57.833918 15.051515 57.860306
18 5 2 0.0 57.850852452206794 15.076935782109054 57.87355156462558
19 5 3 0.0 57.463369 14.965805 57.535734
20 5 4 0.0 57.51175526297974 15.002942567225606 57.55762863793167
21 6 1 0.0 42.561657 27.688596 2.269872
22 6 2 0.0 42.60602727889744 27.692375911273643 2.27003106338611
23 6 3 0.0 42.997412 27.49619 2.421851
24 6 4 0.0 43.03114810968569 27.53169868504033 2.451133246318817
25 7 1 0.0 31.587366 35.341325 51.644576
26 7 2 0.0 31.630631221609143 35.363745855632224 51.67330383833442
27 7 3 0.0 31.886194 35.167144 51.283518
28 7 4 0.0 31.89266672318112 35.17637960868112 51.31199259169119
29 8 1 0.0 53.901395 18.780175 58.934885
30 8 2 0.0 53.94541883472889 18.803867851040636 58.972111839313975
31 8 3 0.0 53.976992 18.918674 59.409336
32 8 4 0.0 53.98762103311768 18.951345288498242 59.43972240598108
33 9 1 0.0 41.942908 2.831001 39.275881
34 9 2 0.0 41.95175927097596 2.8456390028408265 39.280025685378064
35 9 3 0.0 42.124694 2.694496 38.83055
36 9 4 0.0 42.14773790837874 2.7250797385005097 38.86565581450872
37 10 1 0.0 52.208532 29.718248 2.584109
38 10 2 0.0 52.21055001340323 29.727490136916202 2.6036785094275414
39 10 3 0.0 52.215905 29.465349 2.152846
40 10 4 0.0 52.260204280570235 29.50585510146987 2.1764054327054416
41 11 1 0.0 15.179719 1.632085 0.004537
42 11 2 0.0 15.204922664624856 1.6520620847948602 0.012062481688634684
43 11 3 0.0 15.185375 1.628754 0.504494
44 11 4 0.0 15.214715231987503 1.6592580556846948 0.5075909481107228
45 12 1 0.0 10.500617 33.855298 25.688255
46 12 2 0.0 10.533645485938848 33.87543835418839 25.722509963172033
47 12 3 0.0 10.420683 33.404917 25.486344
48 12 4 0.0 10.448159465910766 33.44286019040409 25.522953030811255
49 13 1 0.0 36.842434 41.555466 33.107532
50 13 2 0.0 36.854158737116755 41.57082388739637 33.141133668759046
51 13 3 0.0 37.19194 41.906743 33.174241
52 13 4 0.0 37.21891842933955 41.911064018365614 33.18966550861039
53 14 1 0.0 50.939028 2.275701 23.606041
54 14 2 0.0 50.97141155441543 2.2770091754385255 23.646275202370735
55 14 3 0.0 50.671307 2.13929 24.005688
56 14 4 0.0 50.71735078160985 2.187589961256225 24.036756241028574
57 15 1 0.0 42.429749 28.536171 50.244691
58 15 2 0.0 42.47251029369409 28.545794904965724 50.25553292859002
59 15 3 0.0 42.421559 28.532406 49.744773
60 15 4 0.0 42.45603672834319 28.565299734178403 49.77781843695623
61 16 1 0.0 55.834493 37.162463 56.866068
62 16 2 0.0 55.87808322118701 37.181937837940886 56.880796339395154
63 16 3 0.0 56.270012 37.028196 56.660409
64 16 4 0.0 56.27888101117457 37.06177216648772 56.704819148472644
65 17 1 0.0 19.182974 26.851923 23.923015
66 17 2 0.0 19.222202947484952 26.856006212840686 23.942797893789837
67 17 3 0.0 19.649191 27.022727 23.981899
68 17 4 0.0 19.66413481993769 27.02520095504853 24.021530429466058
69 18 1 0.0 47.15792 47.07867 5.192618
70 18 2 0.0 47.159942406252696 47.12754776269243 5.204023860880897
71 18 3 0.0 47.266728 47.396439 5.563001
72 18 4 0.0 47.29643361563891 47.44006770866392 5.608554967440514
73 19 1 0.0 37.780699 52.937786 23.932729
74 19 2 0.0 37.79030412352703 52.94238822169655 23.961133154334657
75 19 3 0.0 37.664861 53.423051 23.899572
76 19 4 0.0 37.66925128781116 53.44420023445115 23.937159035614073
77 20 1 0.0 2.0716 40.675651 19.221922
78 20 2 0.0 2.0736582786175344 40.72123768266771 19.236970086502794
79 20 3 0.0 1.694969 40.824671 19.515082
80 20 4 0.0 1.7206880280242742 40.854837315045714 19.525826787664176
81 21 1 0.0 16.353228 51.9003 2.292149
82 21 2 0.0 16.386117762717948 51.901466233975505 2.3058270473299993
83 21 3 0.0 16.264539 51.859335 1.801786
84 21 4 0.0 16.30951744883499 51.870269571475724 1.8302202671292742
85 22 1 0.0 30.53354 2.456729 30.563954
86 22 2 0.0 30.560337724340847 2.4890801947496435 30.57024861312327
87 22 3 0.0 30.160425 2.314238 30.864755
88 22 4 0.0 30.194896981507743 2.3394003689619085 30.896233265494338
89 23 1 0.0 40.853468 1.139551 26.309553
90 23 2 0.0 40.88552612473787 1.169859749522158 26.329817940737634
91 23 3 0.0 40.835092 1.116171 25.810438
92 23 4 0.0 40.88367862683389 1.130964832639469 25.812951904774245
93 24 1 0.0 24.647014 45.897615 28.962489
94 24 2 0.0 24.671173330528877 45.92591694541201 29.004123091536687
95 24 3 0.0 24.226816 45.640201 29.047174
96 24 4 0.0 24.228268447686343 45.688705365153524 29.048137235757256
97 25 1 0.0 33.692954 19.802523 45.64079
98 25 2 0.0 33.6989287214638 19.832103634039655 45.66323257358299
99 25 3 0.0 33.664373 20.071578 45.220323
100 25 4 0.0 33.67562073621831 20.08808117672916 45.26990105796922
101 26 1 0.0 58.167638 44.251425 28.088136
102 26 2 0.0 58.210469473509704 44.29626933065977 28.11967048274053
103 26 3 0.0 58.151283 44.746281 28.157777
104 26 4 0.0 58.17977370595669 44.767535149670074 28.170890884789515
105 27 1 0.0 0.000284 27.845782 43.184614
106 27 2 0.0 0.025779805501305146 27.862879551684383 43.218214692225544
107 27 3 0.0 0.457034 27.715236 43.028608
108 27 4 0.0 0.4993237663143626 27.763447606636444 43.068553280675026
109 28 1 0.0 39.664101 52.034964 40.390895
110 28 2 0.0 39.69678544162499 52.07231042540134 40.40369131707118
111 28 3 0.0 39.805903 51.792647 40.804628
112 28 4 0.0 39.85312581527379 51.828586901462465 40.81554860443677
113 29 1 0.0 40.224599 54.280904 6.426181
114 29 2 0.0 40.25274977542174 54.286268820127646 6.442731691211728
115 29 3 0.0 40.19046 54.779112 6.451139
116 29 4 0.0 40.19260380376825 54.78678254793942 6.469977837137391
117 30 1 0.0 29.517962 45.669127 45.425147
118 30 2 0.0 29.525272609126336 45.699921956731615 45.44057104537952
119 30 3 0.0 29.627941 45.302517 45.10343
120 30 4 0.0 29.669044073386015 45.32207284034477 45.14851773429067
121 31 5 0.0 14.887812 56.188648 52.061435
122 32 5 0.0 7.106511 28.362632 7.32594
123 33 5 0.0 59.052956 51.162264 10.060381
124 34 5 0.0 29.30811 7.431163 49.020339
125 35 5 0.0 46.490891 56.311767 25.916804
126 36 5 0.0 10.58239 28.570033 4.473288
127 37 5 0.0 17.803032 23.778896 34.368971
128 38 5 0.0 44.163678 18.278274 36.474193
129 39 5 0.0 1.675037 14.517972 32.041506
130 40 5 0.0 23.990403 52.150519 59.998971
131 41 5 0.0 21.321906 6.702103 29.281325
132 42 5 0.0 40.631144 28.701187 42.795517
133 43 5 0.0 26.885689 48.318158 59.204425
134 44 5 0.0 5.208146 54.877311 0.293324
135 45 5 0.0 21.345199 3.187708 40.652885
136 46 5 0.0 46.349661 50.195555 15.688974
137 47 5 0.0 39.954773 29.093831 5.139844
138 48 5 0.0 14.500087 36.50615 22.850001
139 49 5 0.0 47.395733 47.843575 44.822006
140 50 5 0.0 29.370602 17.832917 29.769051
141 51 5 0.0 16.138553 7.431769 43.735706
142 52 5 0.0 38.670353 26.494733 13.760208
143 53 5 0.0 4.206175 4.326287 32.556571
144 54 5 0.0 35.980159 32.39142 24.158473
145 55 5 0.0 48.153371 31.968519 32.028142
146 56 5 0.0 11.79866 17.571187 29.096183
147 57 5 0.0 26.299704 1.84311 45.408965
148 58 5 0.0 38.781916 12.585531 5.142072
149 59 5 0.0 15.760952 37.28849 36.411298
150 60 5 0.0 22.321829 47.452729 52.529287
151 61 5 0.0 37.280457 10.729156 50.68502
152 62 5 0.0 37.895575 46.546331 53.50091
153 63 5 0.0 6.996491 42.32988 42.358005
154 64 5 0.0 7.475349 45.822832 49.732385
155 65 5 0.0 26.974234 38.497417 21.292825
156 66 5 0.0 36.188317 49.600058 29.919779
157 67 5 0.0 54.939917 49.582663 20.471933
158 68 5 0.0 53.557582 38.254736 30.704291
159 69 5 0.0 43.398293 3.970866 12.879367
160 70 5 0.0 41.151269 41.419521 16.957203
161 71 5 0.0 19.261058 54.568245 11.530924
162 72 5 0.0 29.922619 52.453671 12.164042
163 73 5 0.0 57.07706 49.956313 56.040619
164 74 5 0.0 23.170869 18.442802 0.000254
165 75 5 0.0 14.540143 13.308023 21.499395
166 76 5 0.0 59.999057 8.671595 21.802285
167 77 5 0.0 31.362413 4.839937 58.334365
168 78 5 0.0 42.911496 34.579911 49.361452
169 79 5 0.0 38.644488 5.607795 37.41417
170 80 5 0.0 33.001196 48.56628 53.911262
171 81 5 0.0 46.087626 3.783486 38.195167
172 82 5 0.0 41.405083 47.98573 10.08951
173 83 5 0.0 57.574327 51.44291 52.254856
174 84 5 0.0 54.040622 58.851002 6.906159
175 85 5 0.0 13.541606 55.875868 27.007391
176 86 5 0.0 40.00304 44.59065 30.342043
177 87 5 0.0 3.903182 52.442871 26.15641
178 88 5 0.0 36.119761 31.219834 44.216871
179 89 5 0.0 31.521844 26.824205 32.973649
180 90 5 0.0 13.669772 5.415335 18.185582
181 91 5 0.0 26.47548 55.977537 14.159454
182 92 5 0.0 26.25909 46.164104 15.690792
183 93 5 0.0 14.008676 52.286627 13.824164
184 94 5 0.0 57.655453 31.81729 51.337426
185 95 5 0.0 6.720117 17.920073 8.168007
186 96 5 0.0 41.774028 44.749839 45.223308
187 97 5 0.0 28.887836 4.489657 44.335895
188 98 5 0.0 59.669258 33.574415 30.644148
189 99 5 0.0 14.540226 46.946312 33.784015
190 100 5 0.0 29.995958 0.41763 14.710915
191 101 5 0.0 53.504378 40.062877 42.8239
192 102 5 0.0 43.180171 7.653906 45.92925
193 103 5 0.0 1.646184 40.917866 33.637474
194 104 5 0.0 39.103754 28.397942 22.013078
195 105 5 0.0 36.226528 39.587662 49.504103
196 106 5 0.0 13.883558 45.731792 54.527619
197 107 5 0.0 7.913438 43.297621 54.321111
198 108 5 0.0 52.000516 11.383832 32.754938
199 109 5 0.0 34.575772 4.355925 39.139317
200 110 5 0.0 8.930032 31.715909 55.503557
201 111 5 0.0 58.861135 10.432288 48.61859
202 112 5 0.0 3.67621 9.940875 6.8982
203 113 5 0.0 6.008471 5.033949 24.738575
204 114 5 0.0 51.401287 26.426293 54.052165
205 115 5 0.0 54.089326 44.033267 52.207557
206 116 5 0.0 44.692528 29.760843 27.356329
207 117 5 0.0 4.387348 21.794635 6.983322
208 118 5 0.0 38.045788 34.059815 29.809204
209 119 5 0.0 38.730389 24.187625 8.744663
210 120 5 0.0 29.789751 53.633158 42.768229
211 121 5 0.0 44.984679 40.595962 0.003895
212 122 5 0.0 37.773436 7.140188 0.192837
213 123 5 0.0 40.570942 56.810028 59.712448
214 124 5 0.0 49.009104 43.709663 18.807856
215 125 5 0.0 37.381869 3.29978 7.2982
216 126 5 0.0 17.893782 4.268175 9.85986
217 127 5 0.0 21.670131 6.663013 43.675171
218 128 5 0.0 35.852954 50.633446 14.15143
219 129 5 0.0 35.152654 27.116986 30.778795
220 130 5 0.0 37.188694 52.937748 27.770435
221 131 5 0.0 43.01682 7.964754 10.146015
222 132 5 0.0 58.095274 42.652178 16.950836
223 133 5 0.0 29.506213 42.883582 37.67384
224 134 5 0.0 55.308769 59.35605 20.320883
225 135 5 0.0 46.569246 41.657244 15.161838
226 136 5 0.0 27.446256 19.487774 9.97544
227 137 5 0.0 34.718226 0.000709 48.801255
228 138 5 0.0 8.615762 59.965646 14.84069
229 139 5 0.0 45.622494 43.617424 22.82161
230 140 5 0.0 29.236331 16.828782 33.866932
231 141 5 0.0 18.549508 23.194279 20.489204
232 142 5 0.0 19.516046 2.622615 22.928652
233 143 5 0.0 45.284658 43.640894 51.473226
234 144 5 0.0 54.669122 52.91908 55.431723
235 145 5 0.0 44.928659 0.148205 18.896006
236 146 5 0.0 48.360794 6.212611 32.02027
237 147 5 0.0 46.195908 54.861513 46.934472
238 148 5 0.0 54.275771 44.620014 0.162528
239 149 5 0.0 41.828614 23.516353 15.180635
240 150 5 0.0 39.004775 5.416042 30.967319
241 151 5 0.0 23.064974 46.838203 42.667556
242 152 5 0.0 13.363698 23.307873 24.63315
243 153 5 0.0 9.455314 21.033407 53.174344
244 154 5 0.0 54.836136 5.18763 36.896579
245 155 5 0.0 29.624185 0.891874 0.748057
246 156 5 0.0 56.933946 14.733474 34.948008
247 157 5 0.0 58.629814 25.745486 34.427905
248 158 5 0.0 51.55525 16.440826 26.285849
249 159 5 0.0 33.13695 41.580838 58.138615
250 160 5 0.0 36.467679 56.360382 6.272429
251 161 5 0.0 22.199899 57.119683 45.053225
252 162 5 0.0 34.260384 39.910097 54.365547
253 163 5 0.0 25.413275 19.382206 32.924439
254 164 5 0.0 57.687055 34.880177 0.00051
255 165 5 0.0 37.67406 32.948163 17.987644
256 166 5 0.0 10.656467 7.880816 21.365865
257 167 5 0.0 27.538806 24.920407 25.90549
258 168 5 0.0 18.526248 56.221197 46.443812
259 169 5 0.0 29.33036 12.460854 52.53822
260 170 5 0.0 8.915208 34.734611 4.72652
261 171 5 0.0 39.783903 43.098171 11.611031
262 172 5 0.0 57.916088 32.700923 40.041343
263 173 5 0.0 30.064921 28.335314 6.254781
264 174 5 0.0 36.190372 2.39912 15.373372
265 175 5 0.0 41.619813 32.079059 27.958282
266 176 5 0.0 47.597137 29.222273 7.094348
267 177 5 0.0 21.361158 55.721192 51.962725
268 178 5 0.0 2.100215 1.401499 40.448483
269 179 5 0.0 39.628964 16.250694 4.27747
270 180 5 0.0 41.826278 9.074352 24.633987
271 181 5 0.0 49.297358 12.934486 4.631077
272 182 5 0.0 11.320457 26.602446 45.762501
273 183 5 0.0 32.297313 43.667228 51.407728
274 184 5 0.0 11.524923 42.651801 25.061461
275 185 5 0.0 17.839617 8.920546 7.969952
276 186 5 0.0 23.222349 59.920724 4.633093
277 187 5 0.0 9.008023 28.385574 53.380128
278 188 5 0.0 29.891706 8.362512 34.239321
279 189 5 0.0 30.924279 30.662718 17.095033
280 190 5 0.0 9.707744 39.7003 53.442532
281 191 5 0.0 0.302356 24.272577 40.599451
282 192 5 0.0 48.300603 43.465437 39.432221
283 193 5 0.0 31.796099 36.073459 43.637909
284 194 5 0.0 38.090049 18.999398 0.311978
285 195 5 0.0 25.985683 8.211911 10.741079
286 196 5 0.0 19.912 35.585612 12.040945
287 197 5 0.0 0.097607 55.784693 46.877448
288 198 5 0.0 38.195969 44.75376 43.515283
289 199 5 0.0 42.157811 36.06145 2.980579
290 200 5 0.0 8.150395 8.837378 55.822689
291 201 5 0.0 39.699013 25.881802 39.219246
292 202 5 0.0 37.843988 18.259189 40.686409
293 203 5 0.0 35.472528 57.600146 43.274887
294 204 5 0.0 29.942487 58.504169 58.611362
295 205 5 0.0 42.953405 59.420495 25.928759
296 206 5 0.0 26.822541 49.984574 27.511427
297 207 5 0.0 45.130103 28.86954 58.561126
298 208 5 0.0 52.682603 0.773463 18.54523
299 209 5 0.0 45.516281 4.11354 30.159589
300 210 5 0.0 18.022725 45.191745 0.010065
301 211 5 0.0 11.623289 59.996408 12.422817
302 212 5 0.0 23.736887 51.589799 52.143055
303 213 5 0.0 37.584631 32.083953 9.021526
304 214 5 0.0 12.119495 55.777987 33.199513
305 215 5 0.0 43.573446 31.674795 54.760752
306 216 5 0.0 45.827189 43.357297 42.680717
307 217 5 0.0 59.850352 57.688959 30.493193
308 218 5 0.0 21.411265 18.597136 12.728798
309 219 5 0.0 5.580707 16.374755 11.826462
310 220 5 0.0 32.15879 14.250574 27.714952
311 221 5 0.0 9.466583 5.409748 6.712928
312 222 5 0.0 17.611971 4.059843 27.411325
313 223 5 0.0 28.728813 24.714666 50.843625
314 224 5 0.0 35.310199 44.698516 10.816478
315 225 5 0.0 54.030485 27.569964 59.422608
316 226 5 0.0 15.384291 50.954122 6.153947
317 227 5 0.0 25.072131 23.696114 47.082954
318 228 5 0.0 49.012351 50.979979 30.686863
319 229 5 0.0 51.906674 47.139705 17.192117
320 230 5 0.0 36.136512 46.314689 33.762224
321 231 5 0.0 23.904445 12.211958 31.622891
322 232 5 0.0 22.489909 51.200332 13.579131
323 233 5 0.0 59.279203 58.321074 20.143125
324 234 5 0.0 20.22103 23.481527 30.361092
325 235 5 0.0 26.787908 4.513032 49.47026
326 236 5 0.0 49.413974 1.832739 6.237972
327 237 5 0.0 41.89689 19.764456 27.613459
328 238 5 0.0 30.910684 2.341994 49.638111
329 239 5 0.0 55.638341 35.064118 43.900516
330 240 5 0.0 50.241389 12.737355 26.909505
331 241 5 0.0 5.073064 0.007287 29.904806
332 242 5 0.0 58.270799 27.691905 11.75252
333 243 5 0.0 44.467942 20.040848 0.8598
334 244 5 0.0 28.386938 38.933947 7.765595
335 245 5 0.0 47.543951 37.96365 50.002919
336 246 5 0.0 49.702306 31.126666 54.978764
337 247 5 0.0 27.130068 2.65279 39.817526
338 248 5 0.0 48.976034 12.68615 42.031726
339 249 5 0.0 29.796956 42.976731 29.229279
340 250 5 0.0 26.183309 32.080008 40.682189
341 251 5 0.0 15.934855 29.899888 59.506608
342 252 5 0.0 37.6848 5.963778 10.835114
343 253 5 0.0 54.326991 33.189054 47.490521
344 254 5 0.0 2.294139 30.930087 10.616014
345 255 5 0.0 33.963121 3.798553 23.273463
346 256 5 0.0 3.001683 10.160324 46.017579
347 257 5 0.0 5.647352 31.884791 13.184544
348 258 5 0.0 40.307644 39.858653 8.805905
349 259 5 0.0 15.165572 8.96384 16.008966
350 260 5 0.0 50.543538 39.604993 16.907756
351 261 5 0.0 55.350779 12.644717 31.316105
352 262 5 0.0 48.575714 41.530286 11.318807
353 263 5 0.0 13.419744 12.482535 4.147535
354 264 5 0.0 45.932071 53.988743 37.873272
355 265 5 0.0 14.390114 46.175123 29.984297
356 266 5 0.0 43.766752 44.322645 31.336765
357 267 5 0.0 0.019679 46.933397 12.463628
358 268 5 0.0 50.173297 25.502186 4.294961
359 269 5 0.0 34.274735 14.686451 6.871756
360 270 5 0.0 12.920838 19.507873 25.263629
361 271 5 0.0 55.389138 24.292694 12.308149
362 272 5 0.0 11.887848 24.510985 55.499177
363 273 5 0.0 36.524038 41.556264 41.764441
364 274 5 0.0 39.992132 18.597307 19.127433
365 275 5 0.0 32.611549 40.402481 29.853205
366 276 5 0.0 59.046603 27.786648 15.61055
367 277 5 0.0 27.14513 10.262357 19.663251
368 278 5 0.0 3.47044 37.874809 1.005971
369 279 5 0.0 39.467383 56.27577 42.998292
370 280 5 0.0 57.825204 20.589839 41.853285
371 281 5 0.0 31.051428 22.964978 48.019954
372 282 5 0.0 5.912323 27.276274 23.268047
373 283 5 0.0 52.768825 32.356502 43.403476
374 284 5 0.0 8.25564 31.626997 29.922489
375 285 5 0.0 6.130437 18.200023 19.351306
376 286 5 0.0 47.544616 3.331294 34.484701
377 287 5 0.0 57.468888 19.514105 26.871956
378 288 5 0.0 10.842476 14.502278 0.000325
379 289 5 0.0 38.322502 29.028973 32.475973
380 290 5 0.0 26.511161 25.35714 57.304159
381 291 5 0.0 59.996803 30.702614 9.299684
382 292 5 0.0 46.903596 55.492784 5.383259
383 293 5 0.0 41.681428 41.372668 25.532816
384 294 5 0.0 46.035164 59.997818 28.603881
385 295 5 0.0 25.559523 42.198609 35.149075
386 296 5 0.0 39.383092 21.492812 24.146788
387 297 5 0.0 50.76799 50.091973 14.994671
388 298 5 0.0 44.068894 9.583763 35.835188
389 299 5 0.0 52.484666 53.248918 10.868292
390 300 5 0.0 49.392464 44.569382 2.637963
391 301 5 0.0 53.35581 8.016658 34.391314
392 302 5 0.0 7.454759 10.859249 28.162878
393 303 5 0.0 59.997439 14.486575 53.010405
394 304 5 0.0 34.248193 37.219467 13.912066
395 305 5 0.0 51.790567 -0.019682 37.944998
396 306 5 0.0 17.629416 17.822184 32.070549
397 307 5 0.0 59.996331 43.586379 53.600013
398 308 5 0.0 41.134358 32.154208 38.873369
399 309 5 0.0 16.605246 3.7425 32.028204
400 310 5 0.0 54.41003 43.415642 23.338498
401 311 5 0.0 1.563223 23.8264 46.757657
402 312 5 0.0 13.659394 7.206334 25.487789
403 313 5 0.0 47.395028 6.767183 26.704813
404 314 5 0.0 48.080704 27.933606 36.792328
405 315 5 0.0 30.560497 8.628588 16.211425
406 316 5 0.0 22.026425 19.011924 45.460356
407 317 5 0.0 43.438147 3.443315 56.293226
408 318 5 0.0 53.793445 41.97049 35.205221
409 319 5 0.0 52.00647 5.013243 31.705548
410 320 5 0.0 26.234928 50.366257 44.736509
411 321 5 0.0 46.9555 13.59779 9.846138
412 322 5 0.0 13.563794 54.309594 41.242008
413 323 5 0.0 18.375233 18.739889 48.593538
414 324 5 0.0 45.425536 43.721933 11.684158
415 325 5 0.0 32.539161 39.442424 20.752264
416 326 5 0.0 26.017617 43.381171 44.700239
417 327 5 0.0 55.590278 28.353171 23.80164
418 328 5 0.0 15.03087 30.447065 24.666352
419 329 5 0.0 38.951064 13.484719 48.013655
420 330 5 0.0 59.023212 53.879624 24.866067
421 331 5 0.0 0.676577 58.473572 6.200837
422 332 5 0.0 32.166304 55.546309 56.513415
423 333 5 0.0 21.6676 41.975741 43.577138
424 334 5 0.0 46.824139 10.114897 53.705588
425 335 5 0.0 54.203327 38.564915 19.196025
426 336 5 0.0 13.497402 19.864114 3.718899
427 337 5 0.0 2.800185 38.470776 23.69788
428 338 5 0.0 18.316349 20.614878 43.655678
429 339 5 0.0 11.382119 12.646068 36.208213
430 340 5 0.0 3.714924 57.069312 29.074032
431 341 5 0.0 32.551172 13.272381 20.007641
432 342 5 0.0 23.840563 31.727684 32.265762
433 343 5 0.0 8.298686 57.574957 17.849952
434 344 5 0.0 29.285044 18.494138 0.115688
435 345 5 0.0 44.468924 11.112425 44.432878
436 346 5 0.0 26.171332 48.220194 35.048163
437 347 5 0.0 16.060138 0.100486 55.437204
438 348 5 0.0 51.871082 59.416233 32.602709
439 349 5 0.0 3.333396 52.47577 43.094855
440 350 5 0.0 7.306196 9.78482 23.491442
441 351 5 0.0 44.033657 2.250243 46.001579
442 352 5 0.0 43.853868 28.999065 40.476773
443 353 5 0.0 19.013881 18.708455 26.105455
444 354 5 0.0 9.407819 51.548644 9.524763
445 355 5 0.0 58.843624 6.504168 13.38496
446 356 5 0.0 4.655308 15.713521 35.626017
447 357 5 0.0 29.990928 28.592092 23.762853
448 358 5 0.0 9.5095 51.957535 25.867349
449 359 5 0.0 38.106209 40.109877 24.38634
450 360 5 0.0 20.96134 13.894131 28.491042
451 361 5 0.0 46.276814 25.533281 41.815305
452 362 5 0.0 42.676732 56.67958 0.003997
453 363 5 0.0 29.721981 17.407003 21.67511
454 364 5 0.0 0.157058 22.432965 12.778373
455 365 5 0.0 17.501906 50.859085 13.0016
456 366 5 0.0 33.807511 13.836848 46.12357
457 367 5 0.0 23.9172 5.259742 6.44671
458 368 5 0.0 53.489898 34.02353 0.23336
459 369 5 0.0 19.576499 0.123697 18.746263
460 370 5 0.0 48.317269 16.817565 31.040379
461 371 5 0.0 7.963111 37.836409 23.08666
462 372 5 0.0 39.835169 23.019151 35.129345
463 373 5 0.0 32.982877 47.768741 16.537875
464 374 5 0.0 29.69709 40.685171 51.358517
465 375 5 0.0 26.415455 48.44516 1.332226
466 376 5 0.0 55.325883 35.52412 15.802464
467 377 5 0.0 4.347812 26.765508 41.03259
468 378 5 0.0 59.677799 25.069789 24.010379
469 379 5 0.0 42.591732 51.000439 46.878549
470 380 5 0.0 15.328987 53.504966 9.931802
471 381 5 0.0 48.968141 57.354717 34.205444
472 382 5 0.0 42.403851 50.85105 26.987067
473 383 5 0.0 0.000289 19.792162 44.352661
474 384 5 0.0 9.240608 48.260225 31.440563
475 385 5 0.0 21.695279 18.378408 37.969563
476 386 5 0.0 12.180986 22.461923 32.379869
477 387 5 0.0 15.765781 40.08682 47.749982
478 388 5 0.0 15.525027 22.211254 30.182924
479 389 5 0.0 25.766735 34.432396 28.949305
480 390 5 0.0 18.449323 15.751474 40.9707
481 391 5 0.0 39.024841 6.234218 20.892854
482 392 5 0.0 32.313663 29.971126 52.670813
483 393 5 0.0 5.947529 43.426136 5.254835
484 394 5 0.0 45.635827 23.388189 3.237253
485 395 5 0.0 41.0202 0.368789 0.008119
486 396 5 0.0 59.384592 20.646881 55.229185
487 397 5 0.0 59.1549 54.270366 28.761272
488 398 5 0.0 57.154298 37.664254 5.648139
489 399 5 0.0 29.195199 16.077052 9.521785
490 400 5 0.0 38.067386 27.548407 46.066368
491 401 5 0.0 59.04309 19.695373 14.118718
492 402 5 0.0 23.985652 10.210072 26.648779
493 403 5 0.0 16.457795 53.133624 27.457299
494 404 5 0.0 41.624374 52.896256 2.677809
495 405 5 0.0 47.153912 22.561898 15.969489
496 406 5 0.0 57.030375 19.097466 50.736493
497 407 5 0.0 6.622985 13.297383 20.758058
498 408 5 0.0 59.273162 0.000953 4.643167
499 409 5 0.0 22.134656 14.60429 1.792932
500 410 5 0.0 45.186648 0.049544 38.783885
501 411 5 0.0 51.402324 29.99139 36.832691
502 412 5 0.0 3.86278 27.225541 11.3206
503 413 5 0.0 29.629211 55.192677 33.000611
504 414 5 0.0 10.700258 0.000235 50.356033
505 415 5 0.0 27.973291 28.668239 0.448409
506 416 5 0.0 54.428374 30.572674 40.343274
507 417 5 0.0 41.159923 3.952246 59.994829
508 418 5 0.0 16.695418 1.387824 6.387161
509 419 5 0.0 24.211446 11.86839 9.833297
510 420 5 0.0 25.95454 27.987789 22.371017
511 421 5 0.0 31.638477 58.941458 40.987046
512 422 5 0.0 0.254743 19.382111 20.431256
513 423 5 0.0 58.190031 10.86588 27.754331
514 424 5 0.0 30.357368 25.292881 3.508777
515 425 5 0.0 58.577917 46.269784 23.430271
516 426 5 0.0 30.040549 52.54928 36.701684
517 427 5 0.0 26.138442 53.457955 49.67584
518 428 5 0.0 39.050675 13.018893 0.018954
519 429 5 0.0 38.815775 42.730558 57.001442
520 430 5 0.0 3.443739 5.031398 54.596563
521 431 5 0.0 38.037934 4.776112 27.276134
522 432 5 0.0 37.86083 17.182183 32.89781
523 433 5 0.0 34.467087 58.416597 47.550872
524 434 5 0.0 9.323196 54.094557 1.798995
525 435 5 0.0 12.421781 59.528461 17.499844
526 436 5 0.0 55.719449 19.120349 11.610319
527 437 5 0.0 48.991997 48.649201 53.821206
528 438 5 0.0 48.281672 39.927829 3.199964
529 439 5 0.0 53.35929 42.151328 46.702043
530 440 5 0.0 44.781213 58.364867 3.268366
531 441 5 0.0 10.197719 40.830642 21.294707
532 442 5 0.0 52.215979 56.527868 52.0215
533 443 5 0.0 59.361092 5.120973 45.324303
534 444 5 0.0 31.339491 58.199834 35.208589
535 445 5 0.0 47.375589 0.544594 52.34239
536 446 5 0.0 58.678502 19.780033 58.988617
537 447 5 0.0 57.532094 30.45988 4.142043
538 448 5 0.0 27.040269 14.466704 0.436148
539 449 5 0.0 1.383226 13.255101 39.839938
540 450 5 0.0 16.160247 35.144503 26.695131
541 451 5 0.0 42.873794 22.549329 52.75964
542 452 5 0.0 13.316912 24.631592 35.791989
543 453 5 0.0 49.701438 5.796179 16.85977
544 454 5 0.0 43.699493 40.167475 22.123547
545 455 5 0.0 41.709944 36.178806 28.095997
546 456 5 0.0 12.751835 11.155985 1.3e-05
547 457 5 0.0 41.437182 1.136673 14.951725
548 458 5 0.0 9.570274 1.257458 56.658788
549 459 5 0.0 46.911405 26.364688 27.93157
550 460 5 0.0 31.500212 20.613688 16.095334
551 461 5 0.0 51.266001 28.886792 44.731053
552 462 5 0.0 42.655874 5.85074 42.398414
553 463 5 0.0 26.51469 17.225821 46.370732
554 464 5 0.0 5.947826 46.271656 41.096829
555 465 5 0.0 3.496082 52.989407 11.697492
556 466 5 0.0 43.037974 0.000706 50.138568
557 467 5 0.0 5.5e-05 34.307964 6.454809
558 468 5 0.0 44.542912 42.404011 47.563686
559 469 5 0.0 45.104087 8.15017 49.279494
560 470 5 0.0 25.335428 3.649045 31.21467
561 471 5 0.0 2.868288 3.452351 58.324454
562 472 5 0.0 1.681346 59.935909 10.898845
563 473 5 0.0 10.354527 25.689542 19.643145
564 474 5 0.0 14.563145 47.393917 26.03226
565 475 5 0.0 32.386338 54.429304 1.426498
566 476 5 0.0 9.282646 41.286427 49.06658
567 477 5 0.0 14.972202 4.192232 52.933512
568 478 5 0.0 52.72902 34.955237 53.664278
569 479 5 0.0 5.087019 8.082945 52.454225
570 480 5 0.0 35.307212 0.035511 24.854117
571 481 5 0.0 54.835767 20.846725 7.485838
572 482 5 0.0 24.604925 43.835508 10.627214
573 483 5 0.0 34.846964 0.211376 7.964111
574 484 5 0.0 59.991184 13.627756 25.756609
575 485 5 0.0 28.914717 14.359104 5.244506
576 486 5 0.0 24.364781 33.432692 59.999051
577 487 5 0.0 24.959022 49.540781 31.388895
578 488 5 0.0 19.976768 45.315369 17.623721
579 489 5 0.0 44.79014 19.931776 45.03564
580 490 5 0.0 37.392513 17.567435 56.484119
581 491 5 0.0 51.840569 56.482878 25.384734
582 492 5 0.0 1.077061 34.004325 58.921081
583 493 5 0.0 15.304293 58.549074 3.264169
584 494 5 0.0 12.22645 37.979829 6.057859
585 495 5 0.0 8.035223 30.495823 42.706592
586 496 5 0.0 49.254178 59.501818 55.56349
587 497 5 0.0 13.301603 15.291745 25.317367
588 498 5 0.0 48.704743 39.165139 7.14518
589 499 5 0.0 44.959354 4.453009 3.500621
590 500 5 0.0 6.381905 59.950539 8.358684
591 501 5 0.0 32.168368 39.502908 7.240849
592 502 5 0.0 19.600167 9.348364 17.232348
593 503 5 0.0 58.067739 41.828021 23.062098
594 504 5 0.0 23.065233 37.3 17.583019
595 505 5 0.0 11.35768 36.542784 47.672612
596 506 5 0.0 22.436515 39.223216 27.666381
597 507 5 0.0 20.766492 1.893152 30.947274
598 508 5 0.0 52.582608 9.684215 5.687991
599 509 5 0.0 30.17961 41.653077 9.972104
600 510 5 0.0 31.755508 45.811679 39.151587
601 511 5 0.0 43.828329 54.421033 59.852835
602 512 5 0.0 30.466209 46.814306 26.377944
603 513 5 0.0 34.775797 15.82023 13.240636
604 514 5 0.0 15.16315 35.485592 0.006575
605 515 5 0.0 50.776561 59.996842 22.202854
606 516 5 0.0 37.845064 36.101982 0.949476
607 517 5 0.0 43.383408 19.394589 31.256051
608 518 5 0.0 16.961965 29.860382 40.708442
609 519 5 0.0 37.877185 3.165821 18.832996
610 520 5 0.0 35.122276 57.290165 22.273833
611 521 5 0.0 49.12279 33.706408 18.650166
612 522 5 0.0 12.215146 19.780862 21.423515
613 523 5 0.0 23.644159 24.241162 18.993535
614 524 5 0.0 17.897574 19.934678 11.885566
615 525 5 0.0 1.977561 59.210401 46.814907
616 526 5 0.0 24.34505 1.279832 56.304553
617 527 5 0.0 18.488373 31.623702 14.437852
618 528 5 0.0 0.745731 22.679188 8.529357
619 529 5 0.0 24.322642 19.239357 19.566647
620 530 5 0.0 35.932078 47.036921 0.624599
621 531 5 0.0 12.106359 2.522918 34.797169
622 532 5 0.0 57.510725 9.645301 7.52859
623 533 5 0.0 19.195845 32.808815 21.773888
624 534 5 0.0 6.414476 11.643588 40.571746
625 535 5 0.0 48.288843 56.990845 15.634584
626 536 5 0.0 37.787919 38.281653 57.93863
627 537 5 0.0 47.917963 47.609306 0.790579
628 538 5 0.0 45.520749 50.698912 35.112915
629 539 5 0.0 30.248966 55.905602 24.394852
630 540 5 0.0 3.75261 2.014836 36.3455
631 541 5 0.0 0.000202 51.155676 15.507266
632 542 5 0.0 18.812753 48.805834 30.095717
633 543 5 0.0 48.655139 8.609148 9.185279
634 544 5 0.0 7.289614 11.516472 16.561015
635 545 5 0.0 16.601581 10.985445 0.021389
636 546 5 0.0 27.056673 57.072298 41.615077
637 547 5 0.0 53.554836 2.500445 41.031628
638 548 5 0.0 24.781695 53.574458 55.609279
639 549 5 0.0 21.671163 29.140232 5.125547
640 550 5 0.0 10.720208 58.769226 24.462991
641 551 5 0.0 39.030313 0.002265 56.945128
642 552 5 0.0 24.744063 41.059635 53.954698
643 553 5 0.0 52.838336 30.643219 14.332033
644 554 5 0.0 22.822015 16.800522 26.225855
645 555 5 0.0 7.093058 39.365325 46.542144
646 556 5 0.0 41.194686 51.160492 32.869405
647 557 5 0.0 32.943617 8.213894 31.540592
648 558 5 0.0 16.198244 33.56514 3.784208
649 559 5 0.0 20.466017 30.108688 31.082224
650 560 5 0.0 38.912441 20.99487 31.003389
651 561 5 0.0 16.603693 14.923737 28.61243
652 562 5 0.0 25.756934 14.159509 26.521751
653 563 5 0.0 11.204426 49.318034 3.024444
654 564 5 0.0 56.37614 53.193876 3.442723
655 565 5 0.0 6.820785 52.199156 49.78516
656 566 5 0.0 17.261108 2.666211 38.794637
657 567 5 0.0 22.078656 54.092099 35.852207
658 568 5 0.0 7.658517 25.765561 2.057694
659 569 5 0.0 6.634456 50.214675 55.60986
660 570 5 0.0 51.832822 4.804545 59.015435
661 571 5 0.0 17.192218 14.542001 35.765336