LAMMPS (23 Jun 2022)
  using 1 OpenMP thread(s) per MPI task
package intel 1
units            real
atom_style       full
boundary         p p p

read_data 	    data_crystal.lammps
Reading data file ...
  orthogonal box = (-1.3437134 -1.3437134 -1.3437134) to (20.155701 20.155701 20.155701)
  2 by 2 by 2 MPI processor grid
  reading atoms ...
  1024 atoms
  scanning bonds ...
  2 = max bonds/atom
  reading bonds ...
  768 bonds
Finding 1-2 1-3 1-4 neighbors ...
  special bond factors lj:    0        0        0       
  special bond factors coul:  0        0        0       
     2 = max # of 1-2 neighbors
     1 = max # of 1-3 neighbors
     2 = max # of 1-4 neighbors
     3 = max # of special neighbors
  special bonds CPU = 0.001 seconds
  read_data CPU = 0.006 seconds

pair_style 	    lj/cut/coul/long 8.5125
special_bonds   lj/coul 0.0 0.0 0.0
bond_style	    harmonic

variable        TK equal 50
variable        kB equal 0.001987204259
variable 	    e_AA equal 114.128*${kB}
variable 	    e_AA equal 114.128*0.001987204259

# Only solute-solute LJ interactions exist
pair_coeff 	    1 1 ${e_AA} 	3.405
pair_coeff 	    1 1 0.226795647671152 	3.405
pair_coeff      1 2 0.0		    0.5
pair_coeff      1 3 0.0         0.5
pair_coeff      1 4 0.0         0.5
pair_coeff      2 2 0.0         0.5
pair_coeff      2 3 0.0         0.5
pair_coeff      2 4 0.0         0.5
pair_coeff      3 3 0.0         0.5
pair_coeff      3 4 0.0         0.5
pair_coeff      4 4 0.0         0.5

pair_modify 	shift yes
kspace_style    pppm 1.0e-6

variable 	    q equal 0.5
variable        alpha equal 0.5

variable        K1 equal 0.5*332.0716*(${q}^2)/${alpha}
variable        K1 equal 0.5*332.0716*(0.5^2)/${alpha}
variable        K1 equal 0.5*332.0716*(0.5^2)/0.5

set             type 2 charge ${q}
set             type 2 charge 0.5
Setting atom values ...
  256 settings made for charge
set             type 4 charge -${q}
set             type 4 charge -0.5
Setting atom values ...
  256 settings made for charge

bond_coeff      1   100000       0.500
bond_coeff     	2   ${K1}	     0.0
bond_coeff     	2   83.0179	     0.0
bond_coeff      3   ${K1}        0.0
bond_coeff      3   83.0179        0.0

fix             DRUDE all drude C D C D

neighbor         2.0 bin
neigh_modify     every 1 delay 0 check yes

variable        dt equal 0.1

group		    ATOMS type 1 3
512 atoms in group ATOMS
group		    DRUDES type 2 4
512 atoms in group DRUDES

velocity       	all create ${TK} 12345
velocity       	all create 50 12345
comm_modify     vel yes

timestep	    ${dt}
timestep	    0.1

variable        TDK equal 1.0
variable        PBAR equal 1.0

variable        TD equal ${dt}*100
variable        TD equal 0.1*100
variable        TDD equal ${dt}*10
variable        TDD equal 0.1*10
variable        PD equal ${dt}*1000
variable        PD equal 0.1*1000

fix             fshake all shake 0.0001 20 0 b 1
     256 = # of size 2 clusters
       0 = # of size 3 clusters
       0 = # of size 4 clusters
       0 = # of frozen angles
  find clusters CPU = 0.000 seconds
fix             1 all langevin/drude ${TK} ${TD} 712346 ${TDK} ${TDD} 912102 zero yes
fix             1 all langevin/drude 50 ${TD} 712346 ${TDK} ${TDD} 912102 zero yes
fix             1 all langevin/drude 50 10 712346 ${TDK} ${TDD} 912102 zero yes
fix             1 all langevin/drude 50 10 712346 1 ${TDD} 912102 zero yes
fix             1 all langevin/drude 50 10 712346 1 1 912102 zero yes
fix             2 ATOMS nph iso ${PBAR} ${PBAR} ${PD} dilate all
fix             2 ATOMS nph iso 1 ${PBAR} ${PD} dilate all
fix             2 ATOMS nph iso 1 1 ${PD} dilate all
fix             2 ATOMS nph iso 1 1 100 dilate all
fix             3 DRUDES nve

thermo           100
thermo_style     custom step epair pe lx ly lz vol press density ecoul elong

dump            1 all custom 500 dump.coord id type x y z vx vy vz ix iy iz
dump_modify     1 sort id format line "%5d %3d %13.8f %13.8f %13.8f %13.8f %13.8f %13.8f %3d %3d %3d" flush yes

run          	1000000
PPPM initialization ...
  using 12-bit tables for long-range coulomb (src/kspace.cpp:342)
  G vector (1/distance) = 0.40232367
  grid = 24 24 24
  stencil order = 7
  estimated absolute RMS force accuracy = 0.0001040049
  estimated relative force accuracy = 3.1320766e-07
  using single precision MKL FFT
  3d grid and FFT values/proc = 9261 1728
----------------------------------------------------------
Using INTEL Package without Coprocessor.
Compiler: Intel Classic C++ 19.10.0 / Intel(R) C++ g++ 8.5 mode
SIMD compiler directives: Enabled
Precision: mixed
----------------------------------------------------------
Generated 0 of 6 mixed pair_coeff terms from geometric mixing rule
Rebuild special list taking Drude particles into account
Old max number of 1-2 to 1-4 neighbors: 3
New max number of 1-2 to 1-4 neighbors: 3 (+0)
Neighbor list info ...
  update every 1 steps, delay 0 steps, check yes
  max neighbors/atom: 2000, page size: 100000
  master list distance cutoff = 10.5125
  ghost atom cutoff = 10.5125
  binsize = 5.25625, bins = 5 5 5
  1 neighbor lists, perpetual/occasional/extra = 1 0 0
  (1) pair lj/cut/coul/long/intel, perpetual
      attributes: half, newton on, intel
      pair build: half/bin/newton/intel
      stencil: half/bin/3d
      bin: intel
Per MPI rank memory allocation (min/avg/max) = 11.03 | 11.03 | 11.03 Mbytes
   Step         E_pair         PotEng           Lx             Ly             Lz           Volume         Press         Density         E_coul         E_long    
         0  -714.23644     -606.61324      21.499414      21.499414      21.499414      9937.5623     -4760.0764      3.417702       9356.8319     -9642.9377    
       100  -796.03934     -757.8163       21.294357      21.294357      21.294357      9655.918       8794.5022      3.5173897      9278.7523     -9642.9057    
       200  -821.03653     -777.10354      20.903253      20.903253      20.903253      9133.592       1560.5439      3.71854        9253.328      -9643.4853    
       300  -832.6244      -783.25742      20.562604      20.562604      20.562604      8694.2948     -31995.243      3.9064269      9229.2037     -9643.7919    
       400  -833.72503     -781.0569       20.415881      20.415881      20.415881      8509.5071     -34236.052      3.9912567      9217.7101     -9643.7843    
       500  -831.60949     -779.28576      20.395299      20.395299      20.395299      8483.7956     -20037.784      4.0033528      9217.266      -9643.5376    
       600  -832.6826      -778.74121      20.466056      20.466056      20.466056      8572.401      -43635.293      3.9619736      9220.5843     -9643.2501    
       700  -830.91707     -778.7362       20.543739      20.543739      20.543739      8670.3861      22736.202      3.9171989      9226.9158     -9643.0835    
       800  -827.97088     -777.24715      20.603753      20.603753      20.603753      8746.5949     -33180.238      3.8830685      9232.5099     -9642.8202    
       900  -825.50781     -775.63068      20.597647      20.597647      20.597647      8738.8203      9089.5093      3.8865231      9233.6572     -9642.5587    
      1000  -826.0119      -773.57375      20.583991      20.583991      20.583991      8721.451       26335.448      3.8942633      9231.5263     -9642.2753    
      1100  -824.28203     -772.75543      20.564246      20.564246      20.564246      8696.3767     -19926.681      3.9054917      9231.2834     -9642.0706    
      1200  -824.27783     -772.66234      20.569379      20.569379      20.569379      8702.8913     -50031.88       3.9025682      9231.0556     -9642.1721    
      1300  -823.40572     -772.25638      20.587373      20.587373      20.587373      8725.7505     -1167.1964      3.8923445      9232.7739     -9642.3102    
      1400  -821.71612     -771.4993       20.629393      20.629393      20.629393      8779.2893      17419.263      3.8686078      9236.0033     -9642.1044    
      1500  -819.88906     -770.56132      20.61726       20.61726       20.61726       8763.8078     -49637.698      3.8754418      9236.5232     -9641.9717    
      1600  -820.15501     -770.02629      20.621496      20.621496      20.621496      8769.2102      46810.353      3.8730543      9236.1429     -9641.9513    
      1700  -820.97129     -769.43841      20.64142       20.64142       20.64142       8794.6527      68201.703      3.8618497      9236.1434     -9641.9923    
      1800  -817.09365     -768.35586      20.698403      20.698403      20.698403      8867.6901      12404.581      3.8300422      9242.3345     -9641.7451    
      1900  -815.70291     -767.05798      20.720054      20.720054      20.720054      8895.5466      152.24578      3.8180484      9244.1993     -9641.5638    
      2000  -814.47704     -767.39375      20.665161      20.665161      20.665161      8825.0336      6746.1574      3.848555       9242.98       -9641.5964    
      2100  -818.198       -766.91058      20.544881      20.544881      20.544881      8671.8331     -10386.209      3.9165453      9232.1905     -9641.7373    
      2200  -817.00214     -764.88648      20.477825      20.477825      20.477825      8587.1979     -10853.731      3.9551466      9228.116      -9641.5511    
      2300  -815.71293     -763.71068      20.451789      20.451789      20.451789      8554.4853     -61100.941      3.9702713      9226.8315     -9641.3826    
      2400  -816.89289     -764.04817      20.524765      20.524765      20.524765      8646.3849      1412.8795      3.9280725      9230.3832     -9641.1293    
      2500  -815.92296     -763.94338      20.658579      20.658579      20.658579      8816.6035      24858.501      3.8522348      9239.0266     -9641.0218    
      2600  -811.59557     -762.83337      20.700667      20.700667      20.700667      8870.6009     -33954.335      3.8287854      9244.8313     -9640.6158    
      2700  -811.45768     -761.48503      20.688165      20.688165      20.688165      8854.5388      14437.58       3.8357308      9244.1144     -9640.3747    
      2800  -808.98997     -760.03585      20.691557      20.691557      20.691557      8858.8938      806.83208      3.8338451      9246.0566     -9640.3591    
      2900  -808.58459     -759.14566      20.683944      20.683944      20.683944      8849.1201      29520.507      3.8380795      9245.1685     -9640.1786    
      3000  -808.35191     -757.44983      20.677459      20.677459      20.677459      8840.7983     -19370.519      3.8416923      9244.3183     -9639.9277    
      3100  -805.17637     -756.50723      20.714539      20.714539      20.714539      8888.4453     -12005.654      3.8210987      9248.5675     -9639.7826    
      3200  -802.94647     -756.00434      20.736841      20.736841      20.736841      8917.1859      31104.598      3.8087831      9251.6987     -9639.7557    
      3300  -804.83243     -757.03323      20.735097      20.735097      20.735097      8914.936       19765.002      3.8097443      9249.8168     -9639.8199    
      3400  -808.01258     -758.29545      20.700733      20.700733      20.700733      8870.6847      53998.74       3.8287492      9245.4404     -9640.1803    
      3500  -809.42526     -759.25306      20.623674      20.623674      20.623674      8771.99       -19082.257      3.8718269      9240.3997     -9640.5555    
      3600  -810.69334     -760.21549      20.588302      20.588302      20.588302      8726.9317     -1871.1653      3.8918177      9237.1222     -9640.7538    
      3700  -810.63619     -760.15608      20.607818      20.607818      20.607818      8751.7729     -6309.1313      3.880771       9238.2944     -9640.8557    
      3800  -810.37694     -760.80652      20.662054      20.662054      20.662054      8821.0544      19402.273      3.8502911      9241.7054     -9641.0347    
      3900  -809.52134     -760.18718      20.669413      20.669413      20.669413      8830.4822     -28394.039      3.8461803      9242.2501     -9640.8632    
      4000  -808.17584     -760.10165      20.656314      20.656314      20.656314      8813.704      -41976.272      3.8535021      9242.7317     -9640.953     
      4100  -809.05537     -759.53675      20.625449      20.625449      20.625449      8774.2543     -15375.533      3.8708278      9239.8457     -9640.9979    
      4200  -809.32196     -758.88761      20.596857      20.596857      20.596857      8737.8149     -40322.569      3.8869703      9237.3937     -9640.7314    
      4300  -808.13329     -758.52438      20.637678      20.637678      20.637678      8789.8703     -42634.212      3.8639509      9240.5874     -9640.6421    
      4400  -805.85517     -757.38911      20.666205      20.666205      20.666205      8826.3714     -23270.214      3.8479716      9244.0261     -9640.3056    
      4500  -806.66623     -756.64941      20.60954       20.60954       20.60954       8753.9668      21521.304      3.8797984      9239.871      -9640.4857    
      4600  -805.31588     -755.54656      20.629889      20.629889      20.629889      8779.9224      12646.896      3.8683288      9241.9776     -9640.2825    
      4700  -804.44187     -755.46609      20.677337      20.677337      20.677337      8840.642       10859.648      3.8417602      9245.2639     -9640.0838    
      4800  -803.1116      -755.32125      20.688896      20.688896      20.688896      8855.4763     -7524.6408      3.8353247      9247.2891     -9639.9328    
      4900  -804.9468      -755.41292      20.670709      20.670709      20.670709      8832.1439     -14873.402      3.8454567      9244.7604     -9640.037     
      5000  -804.6156      -755.5516       20.611425      20.611425      20.611425      8756.3693      46814.467      3.878734       9242.1968     -9639.9885    
      5100  -804.79276     -754.69314      20.598342      20.598342      20.598342      8739.7058      25620.018      3.8861293      9240.835      -9639.9545    
      5200  -803.14208     -753.33282      20.624769      20.624769      20.624769      8773.3871     -33802.786      3.8712103      9243.0488     -9639.7441    
      5300  -802.65419     -752.167        20.671317      20.671317      20.671317      8832.9226      1234.5484      3.8451177      9245.0506     -9639.3754    
      5400  -799.65019     -752.36824      20.731192      20.731192      20.731192      8909.9004     -7383.8826      3.8118975      9251.0028     -9639.4233    
      5500  -800.58213     -751.68594      20.712138      20.712138      20.712138      8885.3553      7284.326       3.8224275      9248.8709     -9639.5294    
      5600  -800.60545     -751.32995      20.626533      20.626533      20.626533      8775.638       7656.731       3.8702174      9243.6019     -9639.58      
      5700  -801.6674      -751.33874      20.574874      20.574874      20.574874      8709.8674      5538.9726      3.8994425      9239.423      -9639.9751    
      5800  -802.36855     -751.57196      20.562346      20.562346      20.562346      8693.9672      40485.753      3.9065741      9237.7067     -9640.0776    
      5900  -804.86707     -753.88651      20.650516      20.650516      20.650516      8806.2847     -32051.896      3.8567487      9241.2577     -9640.1165    
      6000  -803.02628     -754.02688      20.722806      20.722806      20.722806      8899.0919     -27765.394      3.8165273      9247.1425     -9640.0686    
      6100  -801.74264     -753.31352      20.742197      20.742197      20.742197      8924.0961     -10276.165      3.8058338      9249.169      -9639.9769    
      6200  -803.08075     -753.92838      20.708676      20.708676      20.708676      8880.901      -5492.4002      3.8243447      9246.2775     -9640.0674    
      6300  -802.29373     -753.76293      20.655833      20.655833      20.655833      8813.0882      8612.4699      3.8537714      9243.9047     -9640.3031    
      6400  -802.1968      -753.18465      20.648446      20.648446      20.648446      8803.6371      2575.4         3.8579085      9242.9312     -9640.1713    
      6500  -802.67215     -752.70463      20.634014      20.634014      20.634014      8785.1895      19357.127      3.8660096      9241.7011     -9640.0302    
      6600  -801.51096     -752.00686      20.653994      20.653994      20.653994      8810.7351      5374.4085      3.8548006      9243.7172     -9639.9409    
      6700  -801.34272     -752.00505      20.648383      20.648383      20.648383      8803.5563      10891.648      3.857944       9243.3552     -9640.0861    
      6800  -801.88849     -751.62435      20.658025      20.658025      20.658025      8815.8943     -26558.354      3.8525447      9242.8879     -9640.0765    
      6900  -802.2604      -751.5865       20.643511      20.643511      20.643511      8797.3267      74423.963      3.8606759      9241.246      -9640.0997    
      7000  -800.20738     -752.09342      20.660608      20.660608      20.660608      8819.2021     -19656.43       3.8510997      9244.2045     -9640.2725    
      7100  -802.70189     -751.81407      20.639056      20.639056      20.639056      8791.6322      44504.182      3.8631765      9240.9562     -9640.3112    
      7200  -803.98016     -753.17512      20.686001      20.686001      20.686001      8851.7603     -29992.514      3.8369348      9243.1111     -9640.3216    
      7300  -803.48775     -753.73658      20.71069       20.71069       20.71069       8883.4919     -12944.027      3.8232293      9244.9601     -9640.1398    
      7400  -802.58063     -752.47626      20.653955      20.653955      20.653955      8810.6855     -30710.731      3.8548223      9242.0929     -9639.952     
      7500  -801.41903     -750.46964      20.611997      20.611997      20.611997      8757.0978      20702.475      3.8784113      9239.8442     -9639.6876    
      7600  -800.66129     -750.12066      20.58621       20.58621       20.58621       8724.2723      9775.6813      3.893004       9239.1916     -9639.5625    
      7700  -801.11503     -749.97027      20.612568      20.612568      20.612568      8757.8256     -3749.377       3.878089       9240.3864     -9639.3234    
      7800  -802.23325     -750.15193      20.628773      20.628773      20.628773      8778.498       55899.654      3.8689565      9240.2167     -9639.5847    
      7900  -800.635       -750.88295      20.656582      20.656582      20.656582      8814.0472      2361.3483      3.8533521      9243.4667     -9639.457     
      8000  -801.38658     -751.84802      20.747441      20.747441      20.747441      8930.8673      39583.875      3.8029483      9248.3005     -9639.645     
      8100  -798.37145     -751.63434      20.799618      20.799618      20.799618      8998.4158      47055.656      3.7744007      9253.5514     -9639.4961    
      8200  -798.55957     -751.09901      20.767646      20.767646      20.767646      8956.9843     -22367.655      3.7918596      9251.5945     -9639.4362    
      8300  -798.76964     -750.61462      20.726983      20.726983      20.726983      8904.4745     -50606.64       3.8142202      9248.836      -9639.5784    
      8400  -799.60937     -750.31482      20.680308      20.680308      20.680308      8844.4534     -8753.5755      3.8401047      9244.9889     -9639.8561    
      8500  -797.85844     -748.96382      20.61923       20.61923       20.61923       8766.3205      9219.3715      3.8743309      9242.3338     -9639.991     
      8600  -799.13778     -749.25225      20.617328      20.617328      20.617328      8763.8945     -15810.963      3.8754034      9240.8972     -9640.1676    
      8700  -799.77709     -748.53852      20.67682       20.67682       20.67682       8839.9795      29164.256      3.8420481      9242.8285     -9639.8434    
      8800  -797.78153     -747.86555      20.712203      20.712203      20.712203      8885.4385      45828.744      3.8223917      9246.3404     -9639.6033    
      8900  -795.69572     -747.60773      20.751937      20.751937      20.751937      8936.6735      15093.048      3.8004775      9250.233      -9639.4811    
      9000  -794.94748     -747.17757      20.7362        20.7362        20.7362        8916.3583     -29823.469      3.8091366      9250.2624     -9639.2774    
      9100  -796.53992     -747.74864      20.67604       20.67604       20.67604       8838.9783     -16090.571      3.8424833      9246.0731     -9639.3182    
      9200  -797.37579     -747.79169      20.643388      20.643388      20.643388      8797.1692      10775.927      3.860745       9243.6072     -9639.4323    
      9300  -797.92486     -747.59742      20.692868      20.692868      20.692868      8860.5778     -17003.541      3.8331165      9245.6019     -9639.2184    
      9400  -797.44994     -748.28704      20.75215       20.75215       20.75215       8936.9491     -21703.26       3.8003603      9249.3556     -9639.392     
      9500  -794.79796     -748.30496      20.751226      20.751226      20.751226      8935.7553      14192.258      3.800868       9251.5317     -9639.4679    
      9600  -796.65409     -746.46852      20.753825      20.753825      20.753825      8939.1133      79527.015      3.7994403      9248.3545     -9639.2512    
      9700  -793.18806     -745.07737      20.697435      20.697435      20.697435      8866.4464     -2093.7559      3.8305794      9247.915      -9639.2068    
      9800  -790.9167      -743.6582       20.715533      20.715533      20.715533      8889.725      -8968.2064      3.8205487      9249.993      -9639.1611    
      9900  -791.57682     -742.44104      20.731875      20.731875      20.731875      8910.7811     -6092.5044      3.8115207      9249.1498     -9638.9568    
     10000  -791.08322     -741.97336      20.654273      20.654273      20.654273      8811.0923      7906.3443      3.8546443      9245.0889     -9639.0733    
     10100  -792.48493     -741.48845      20.632407      20.632407      20.632407      8783.1382     -1004.2621      3.8669125      9242.2347     -9639.0501    
     10200  -793.45536     -742.29188      20.652437      20.652437      20.652437      8808.7432      24281.533      3.8556723      9243.1276     -9638.8447    
     10300  -792.28563     -742.75748      20.720202      20.720202      20.720202      8895.7371      21778.285      3.8179666      9248.348      -9638.8168    
     10400  -790.50937     -743.02089      20.78595       20.78595       20.78595       8980.6887      25546.783      3.781851       9253.3495     -9638.724     
     10500  -789.34445     -743.25815      20.825441      20.825441      20.825441      9031.9726     -47353.609      3.7603775      9256.5622     -9638.8083    
     10600  -790.3202      -741.93964      20.820625      20.820625      20.820625      9025.7079     -874.45426      3.7629876      9254.8808     -9638.4468    
     10700  -788.41076     -741.57371      20.768882      20.768882      20.768882      8958.584      -11443.307      3.7911825      9254.4332     -9638.3589    
     10800  -790.82934     -743.0131       20.687321      20.687321      20.687321      8853.4551     -8165.9157      3.8362003      9248.8586     -9638.6489    
     10900  -790.15671     -743.78915      20.745007      20.745007      20.745007      8927.7235      14063.008      3.8042875      9253.2169     -9638.4143    
     11000  -791.5135      -743.96966      20.774521      20.774521      20.774521      8965.8834      28740.841      3.788096       9253.7449     -9638.3058    
     11100  -791.68624     -743.41611      20.709599      20.709599      20.709599      8882.0877     -22166.73       3.8238338      9250.2962     -9638.1491    
     11200  -791.22833     -743.99109      20.683041      20.683041      20.683041      8847.9603      6504.2982      3.8385827      9249.7563     -9638.5014    
     11300  -792.90121     -744.4532       20.701637      20.701637      20.701637      8871.8479      26225.772      3.8282472      9249.2021     -9638.5577    
     11400  -791.93196     -744.19273      20.770744      20.770744      20.770744      8960.9931      12886.747      3.7901633      9253.3657     -9638.5755    
     11500  -787.68472     -740.98283      20.850376      20.850376      20.850376      9064.455      -97216.285      3.7469023      9259.7831     -9638.1951    
     11600  -785.82138     -739.92785      20.838552      20.838552      20.838552      9049.0425      22908.406      3.7532841      9260.1902     -9638.1667    
     11700  -786.86019     -740.77294      20.769717      20.769717      20.769717      8959.6645      54376.861      3.7907253      9256.0618     -9638.4321    
     11800  -789.87155     -740.47517      20.734748      20.734748      20.734748      8914.4859      43943.303      3.8099367      9251.0768     -9638.3112    
     11900  -786.06285     -739.66843      20.722196      20.722196      20.722196      8898.3063      16074.035      3.8168642      9253.9813     -9638.1958    
     12000  -788.74598     -740.24199      20.73016       20.73016       20.73016       8908.5691      3490.784       3.8124671      9251.4412     -9638.1067    
     12100  -790.54874     -741.13766      20.711249      20.711249      20.711249      8884.2108     -16058.813      3.82292        9248.5453     -9638.5445    
     12200  -792.88174     -742.81007      20.712831      20.712831      20.712831      8886.2476     -19634.367      3.8220437      9246.7623     -9638.9292    
     12300  -790.71171     -742.98473      20.725104      20.725104      20.725104      8902.0523     -18294.518      3.8152581      9249.2648     -9639.1236    
     12400  -794.07731     -743.86893      20.755107      20.755107      20.755107      8940.7704     -45420.93       3.7987361      9247.6135     -9639.2372    
     12500  -792.69768     -743.32186      20.800567      20.800567      20.800567      8999.6478     -4157.7079      3.773884       9251.0451     -9639.2131    
     12600  -791.20002     -743.57606      20.760186      20.760186      20.760186      8947.336       82346.312      3.7959485      9250.8899     -9639.3378    
     12700  -791.88109     -743.65464      20.701058      20.701058      20.701058      8871.1029     -6062.0219      3.8285687      9247.074      -9639.319     
     12800  -792.86712     -743.44344      20.647215      20.647215      20.647215      8802.0624     -16729.652      3.8585987      9243.1649     -9639.4178    
     12900  -791.07719     -743.30296      20.662836      20.662836      20.662836      8822.055       5664.8114      3.8498544      9245.6561     -9639.3575    
     13000  -792.54632     -742.47081      20.668764      20.668764      20.668764      8829.6501     -32868.709      3.8465428      9244.2114     -9639.3237    
     13100  -789.32734     -741.06173      20.737236      20.737236      20.737236      8917.6948      32729.091      3.8085658      9250.437      -9638.8662    
     13200  -788.73691     -739.25205      20.753602      20.753602      20.753602      8938.8248     -5199.82        3.7995629      9250.5791     -9638.3737    
     13300  -783.74833     -737.14824      20.767559      20.767559      20.767559      8956.8724     -21674.96       3.791907       9255.468      -9638.1865    
     13400  -779.96577     -734.90882      20.786004      20.786004      20.786004      8980.7584     -5068.8739      3.7818217      9258.8402     -9637.7392    
     13500  -780.77134     -733.78729      20.790926      20.790926      20.790926      8987.1398      14985.451      3.7791364      9257.6768     -9637.5628    
     13600  -781.36679     -733.172        20.822336      20.822336      20.822336      9027.933      -19824.905      3.7620601      9258.3405     -9637.1898    
     13700  -779.0494      -733.40382      20.796121      20.796121      20.796121      8993.8778     -24605.05       3.7763051      9259.7342     -9637.1633    
     13800  -780.92752     -733.2714       20.76245       20.76245       20.76245       8950.2635     -2818.1479      3.7947069      9256.1042     -9636.9812    
     13900  -781.90245     -732.87658      20.736595      20.736595      20.736595      8916.8674     -32387.746      3.8089192      9253.7367     -9637.1986    
     14000  -783.39824     -734.22085      20.715898      20.715898      20.715898      8890.1948     -16426.882      3.8203468      9251.6321     -9637.2882    
     14100  -784.05779     -734.90771      20.634274      20.634274      20.634274      8785.5217     -25035.533      3.8658634      9246.6064     -9637.71      
     14200  -786.02545     -734.78966      20.639091      20.639091      20.639091      8791.6762     -9775.8818      3.8631572      9245.1428     -9637.8165    
     14300  -786.35184     -735.89965      20.731553      20.731553      20.731553      8910.3659     -22773.558      3.8116984      9250.9462     -9637.8451    
     14400  -781.7838      -735.66733      20.818383      20.818383      20.818383      9022.7924      2108.5321      3.7642035      9259.6654     -9637.5374    
     14500  -781.87227     -735.16489      20.849701      20.849701      20.849701      9063.5742     -60396.695      3.7472664      9260.6103     -9637.4067    
     14600  -782.68635     -735.53564      20.839259      20.839259      20.839259      9049.9629      6672.387       3.7529023      9259.5939     -9637.4075    
     14700  -783.37524     -736.56839      20.821917      20.821917      20.821917      9027.3887      13378.835      3.762287       9258.7617     -9637.8005    
     14800  -784.8547      -737.7939       20.78579       20.78579       20.78579       8980.4817     -8257.5059      3.7819382      9256.1107     -9637.9429    
     14900  -786.54819     -738.40032      20.753259      20.753259      20.753259      8938.3818     -24330.461      3.7997512      9253.1199     -9638.3709    
     15000  -787.7241      -738.8174       20.768454      20.768454      20.768454      8958.0301      11057.826      3.7914169      9252.6769     -9638.4114    
     15100  -787.7928      -738.91721      20.798463      20.798463      20.798463      8996.9174     -25771.856      3.7750293      9254.0475     -9638.4402    
     15200  -787.00108     -739.93247      20.810395      20.810395      20.810395      9012.4101     -3208.8869      3.7685399      9255.6826     -9638.6414    
     15300  -786.73653     -739.28781      20.813205      20.813205      20.813205      9016.0621      29357.387      3.7670134      9256.0365     -9638.77      
     15400  -785.924       -739.13259      20.816968      20.816968      20.816968      9020.9531      4180.7285      3.764971       9256.5535     -9638.7606    
     15500  -785.71883     -738.86922      20.851055      20.851055      20.851055      9065.3405      38798.085      3.7465362      9258.2421     -9638.7632    
     15600  -785.74688     -738.86074      20.812415      20.812415      20.812415      9015.0355      9554.1046      3.7674424      9256.0197     -9638.8458    
     15700  -787.51592     -739.62812      20.802587      20.802587      20.802587      9002.2697     -13774.733      3.7727849      9253.875      -9638.963     
     15800  -786.30643     -738.32628      20.798452      20.798452      20.798452      8996.9034     -18471.813      3.7750352      9254.2726     -9638.8198    
     15900  -784.41518     -737.91117      20.807288      20.807288      20.807288      9008.3749      27282.152      3.770228       9255.9919     -9638.6787    
     16000  -783.58634     -737.8172       20.787123      20.787123      20.787123      8982.2084     -65351.477      3.7812112      9255.3511     -9638.7129    
     16100  -784.64154     -737.32973      20.761396      20.761396      20.761396      8948.8995     -20540.561      3.7952853      9252.7641     -9638.846     
     16200  -784.82999     -736.08816      20.739721      20.739721      20.739721      8920.9013      7099.1862      3.8071968      9250.7726     -9638.7227    
     16300  -783.88411     -735.96589      20.746844      20.746844      20.746844      8930.0962     -36268.327      3.8032767      9251.9947     -9638.5319    
     16400  -783.63185     -735.76716      20.768212      20.768212      20.768212      8957.7167     -31545.686      3.7915496      9253.3165     -9638.4249    
     16500  -781.83775     -734.52937      20.828004      20.828004      20.828004      9035.3074     -5939.3327      3.7589896      9257.1805     -9638.1511    
     16600  -776.76574     -732.43271      20.924586      20.924586      20.924586      9161.5847     -55683.765      3.7071782      9265.4364     -9637.9404    
     16700  -778.5071      -733.83479      20.927946      20.927946      20.927946      9165.9995     -42400.124      3.7053926      9264.4792     -9638.2613    
     16800  -780.79533     -736.18546      20.863907      20.863907      20.863907      9082.1132     -2271.7975      3.7396172      9260.7644     -9638.9327    
     16900  -784.94529     -737.9438       20.796647      20.796647      20.796647      8994.5603      4295.0819      3.7760186      9253.6037     -9639.18      
     17000  -785.76166     -738.01421      20.743358      20.743358      20.743358      8925.5948      33678.742      3.8051948      9250.0867     -9639.2443    
     17100  -784.77653     -736.41587      20.681274      20.681274      20.681274      8845.6926      3110.1169      3.8395667      9247.0115     -9639.164     
     17200  -785.08146     -736.15098      20.667353      20.667353      20.667353      8827.842      -5132.9791      3.8473306      9246.2571     -9639.0882    
     17300  -785.60605     -737.49667      20.735532      20.735532      20.735532      8915.4966     -13373.67       3.8095048      9250.4833     -9639.0456    
     17400  -783.098       -736.35812      20.824568      20.824568      20.824568      9030.8366     -17040.923      3.7608506      9256.896      -9638.7517    
     17500  -779.17655     -733.20651      20.914017      20.914017      20.914017      9147.7093     -621.21026      3.7128013      9263.0624     -9638.2182    
     17600  -776.85095     -731.85208      20.94932       20.94932       20.94932       9194.1116     -54856.31       3.694063       9265.784      -9637.8887    
     17700  -776.32655     -732.21408      20.90784       20.90784       20.90784       9139.6066      35142.761      3.7160929      9264.8466     -9637.7746    
     17800  -779.32908     -733.17106      20.877645      20.877645      20.877645      9100.0661     -41433.774      3.7322396      9260.9841     -9638.0961    
     17900  -779.12146     -734.25506      20.838399      20.838399      20.838399      9048.8424      38313.142      3.753367       9259.498      -9638.4453    
     18000  -783.67178     -734.73095      20.786814      20.786814      20.786814      8981.8087     -6037.7491      3.7813794      9252.4485     -9638.6396    
     18100  -782.61476     -736.00615      20.753958      20.753958      20.753958      8939.2854      243.54027      3.7993671      9252.3181     -9638.977     
     18200  -782.63283     -735.87533      20.751859      20.751859      20.751859      8936.5736     -43270.374      3.80052        9252.3713     -9638.9603    
     18300  -783.717       -736.3349       20.761194      20.761194      20.761194      8948.6395     -35096.968      3.7953956      9252.0457     -9638.9321    
     18400  -783.58167     -736.24798      20.773933      20.773933      20.773933      8965.121      -8972.642       3.7884181      9252.9037     -9639.0797    
     18500  -782.76197     -735.56607      20.767176      20.767176      20.767176      8956.3767      3988.0406      3.7921168      9253.2212     -9638.8321    
     18600  -784.52862     -735.94066      20.771407      20.771407      20.771407      8961.8517     -18069.508      3.7898002      9251.8275     -9638.7878    
     18700  -783.80278     -736.53856      20.811828      20.811828      20.811828      9014.2719     -31639.354      3.7677615      9255.2973     -9638.8365    
     18800  -781.80226     -736.60051      20.842293      20.842293      20.842293      9053.9165      8542.017       3.7512635      9259.2041     -9638.5464    
     18900  -784.64185     -737.37272      20.803925      20.803925      20.803925      9004.0071     -10069.224      3.7720569      9255.369      -9638.5916    
     19000  -782.84575     -737.37183      20.780012      20.780012      20.780012      8972.9936     -43901.811      3.7850943      9255.9922     -9638.6414    
     19100  -785.91194     -737.67462      20.730561      20.730561      20.730561      8909.0859     -8952.0722      3.812246       9250.3432     -9638.7453    
     19200  -785.64295     -738.03111      20.689647      20.689647      20.689647      8856.4412     -3794.4241      3.8349068      9248.5924     -9639.0078    
     19300  -787.45983     -738.21446      20.712924      20.712924      20.712924      8886.3664     -12286.746      3.8219926      9248.3067     -9639.071     
     19400  -787.63125     -739.29545      20.688767      20.688767      20.688767      8855.3115      28577.891      3.8353961      9247.3246     -9639.1868    
     19500  -787.45212     -740.61285      20.722613      20.722613      20.722613      8898.8431      25490.851      3.816634       9250.158      -9639.4373    
     19600  -789.03558     -741.15719      20.758424      20.758424      20.758424      8945.057       15815.358      3.7969156      9250.3794     -9639.177     
     19700  -790.88304     -742.59677      20.779511      20.779511      20.779511      8972.3454      22648.072      3.7853677      9250.5042     -9639.2835    
     19800  -790.00298     -742.14643      20.807451      20.807451      20.807451      9008.5857     -51541.002      3.7701397      9253.0138     -9639.1923    
     19900  -787.23635     -740.90065      20.834764      20.834764      20.834764      9044.1089     -38666.519      3.7553315      9256.7002     -9638.7579    
     20000  -786.28697     -740.65233      20.829693      20.829693      20.829693      9037.5056      11885.476      3.7580754      9257.0853     -9638.7857    
     20100  -785.81637     -739.81336      20.767541      20.767541      20.767541      8956.8492     -51773.625      3.7919168      9253.9182     -9638.7948    
     20200  -786.83924     -740.2032       20.730667      20.730667      20.730667      8909.2229      37195.463      3.8121874      9250.7181     -9638.9311    
     20300  -788.99993     -739.17239      20.747095      20.747095      20.747095      8930.4195     -40749.05       3.803139       9248.8322     -9638.982     
     20400  -788.0845      -739.47674      20.744032      20.744032      20.744032      8926.4658     -10817.098      3.8048235      9249.6298     -9638.9605    
     20500  -786.48887     -738.77969      20.784389      20.784389      20.784389      8978.666      -29831.629      3.782703       9252.6347     -9638.7704    
     20600  -785.26399     -737.81457      20.819092      20.819092      20.819092      9023.714       7870.4219      3.7638191      9255.1132     -9638.7934    
     20700  -784.63065     -737.6005       20.774645      20.774645      20.774645      8966.0438     -125.98691      3.7880282      9253.2502     -9638.9815    
     20800  -786.05151     -736.96192      20.673787      20.673787      20.673787      8836.0902     -7685.1598      3.8437393      9246.2305     -9639.2344    
     20900  -785.91424     -736.82634      20.613671      20.613671      20.613671      8759.2324      35607.198      3.8774661      9242.7575     -9639.3097    
     21000  -787.77742     -737.93571      20.637747      20.637747      20.637747      8789.9584     -16327.467      3.8639121      9243.2801     -9639.4465    
     21100  -788.82729     -739.75408      20.72147       20.72147       20.72147       8897.3707     -18286.492      3.8172656      9248.0395     -9639.3947    
     21200  -786.20175     -740.09372      20.846663      20.846663      20.846663      9059.6127      85058.246      3.748905       9257.159      -9639.2425    
     21300  -783.55791     -738.17276      20.892844      20.892844      20.892844      9119.9547     -13232.856      3.7241004      9261.1275     -9638.7807    
     21400  -783.59467     -739.24631      20.83464       20.83464       20.83464       9043.9468      2451.9823      3.7553988      9259.3216     -9638.9855    
     21500  -786.89252     -740.43237      20.75603       20.75603       20.75603       8941.9634     -5909.9266      3.7982292      9253.1432     -9638.8887    
     21600  -789.84653     -741.70245      20.707396      20.707396      20.707396      8879.2534      7440.815       3.8250544      9249.1666     -9638.9356    
     21700  -791.64253     -742.77635      20.706368      20.706368      20.706368      8877.9311     -20734.61       3.8256241      9248.3218     -9639.0702    
     21800  -791.07328     -742.72393      20.704109      20.704109      20.704109      8875.0255     -17023.276      3.8268766      9248.9603     -9639.0124    
     21900  -790.63057     -742.02995      20.732707      20.732707      20.732707      8911.8529     -24804.288      3.8110623      9250.7331     -9639.0393    
     22000  -790.85762     -741.68611      20.737535      20.737535      20.737535      8918.0801      19706.381      3.8084012      9250.8377     -9638.8281    
     22100  -787.17012     -741.16196      20.787292      20.787292      20.787292      8982.4276     -29104.689      3.7811189      9256.8991     -9638.6893    
     22200  -785.72844     -740.61388      20.841466      20.841466      20.841466      9052.8384     -52163.895      3.7517103      9261.1561     -9638.58      
     22300  -785.99779     -741.07456      20.793664      20.793664      20.793664      8990.6912      27673.379      3.7776436      9258.8262     -9638.5675    
     22400  -787.59841     -740.12033      20.77903       20.77903       20.77903       8971.7227      729.13567      3.7856305      9255.8162     -9638.34      
     22500  -785.88851     -738.82023      20.790913      20.790913      20.790913      8987.123      -41748.323      3.7791434      9257.4212     -9638.0783    
     22600  -786.6508      -738.74099      20.771344      20.771344      20.771344      8961.77        52836.194      3.7898347      9255.6628     -9638.3788    
     22700  -786.03612     -739.19926      20.702641      20.702641      20.702641      8873.1388     -2491.1423      3.8276903      9252.2653     -9638.4634    
     22800  -786.7402      -738.64739      20.695109      20.695109      20.695109      8863.4576      1764.2362      3.8318711      9250.5589     -9638.4466    
     22900  -784.62754     -735.71672      20.718717      20.718717      20.718717      8893.8254     -49085.115      3.8187872      9252.4082     -9638.2576    
     23000  -782.4336      -734.95776      20.786963      20.786963      20.786963      8982.001      -9928.0579      3.7812985      9257.0659     -9638.0164    
     23100  -780.70484     -733.98062      20.830933      20.830933      20.830933      9039.1202     -7116.4147      3.757404       9260.381      -9637.9297    
     23200  -780.41696     -733.98124      20.810617      20.810617      20.810617      9012.6992     -46490.409      3.768419       9259.3252     -9637.8142    
     23300  -780.22119     -734.517        20.811798      20.811798      20.811798      9014.2333     -23043.223      3.7677776      9260.0121     -9638.1087    
     23400  -780.74624     -734.68412      20.818748      20.818748      20.818748      9023.2668      19951.447      3.7640056      9259.963      -9638.1413    
     23500  -781.36103     -734.72698      20.788393      20.788393      20.788393      8983.8558      16212.781      3.7805178      9257.9596     -9638.1062    
     23600  -781.71527     -735.61475      20.770617      20.770617      20.770617      8960.829       20164.695      3.7902327      9257.2019     -9638.2282    
     23700  -783.66119     -735.80847      20.75434       20.75434       20.75434       8939.779       21305.442      3.7991573      9254.3177     -9638.174     
     23800  -783.29646     -736.25923      20.75272       20.75272       20.75272       8937.6861      37746.222      3.8000469      9254.7616     -9638.2428    
     23900  -785.16333     -736.68347      20.74361       20.74361       20.74361       8925.9199      72260.104      3.8050562      9252.5749     -9638.0995    
     24000  -783.80472     -736.70678      20.789764      20.789764      20.789764      8985.6326     -8677.1729      3.7797703      9256.5188     -9638.1872    
     24100  -783.17183     -736.49129      20.812946      20.812946      20.812946      9015.7247     -17459.516      3.7671544      9258.3128     -9638.1627    
     24200  -783.66082     -736.51205      20.82258       20.82258       20.82258       9028.2514     -31654.5        3.7619275      9258.3615     -9638.0124    
     24300  -782.15954     -736.51854      20.825711      20.825711      20.825711      9032.3236     -47323.74       3.7602314      9260.1331     -9638.0406    
     24400  -785.09274     -737.04622      20.747529      20.747529      20.747529      8930.9811     -16373.906      3.8028999      9253.7183     -9638.1951    
     24500  -784.86606     -737.50683      20.754191      20.754191      20.754191      8939.5867     -7296.0689      3.7992391      9254.4562     -9638.4223    
     24600  -786.09554     -737.21758      20.778118      20.778118      20.778118      8970.5406     -13040.565      3.7861293      9253.5023     -9638.1859    
     24700  -784.0835      -737.1965       20.79606       20.79606       20.79606       8993.7989      49186.513      3.7763383      9256.4567     -9638.3603    
     24800  -785.87046     -738.09946      20.788399      20.788399      20.788399      8983.8634      28758.293      3.7805146      9254.3567     -9638.5655    
     24900  -785.83385     -738.88058      20.75816       20.75816       20.75816       8944.7166     -9860.6385      3.7970601      9253.7121     -9638.7676    
     25000  -786.62652     -740.47396      20.770623      20.770623      20.770623      8960.8373      2475.9181      3.7902292      9254.6723     -9638.8306    
     25100  -786.83439     -740.17895      20.853197      20.853197      20.853197      9068.1338     -6039.6876      3.7453822      9258.1741     -9638.6415    
     25200  -787.04656     -741.141        20.81956       20.81956       20.81956       9024.3234      8823.8671      3.7635649      9256.9674     -9638.7438    
     25300  -787.14521     -740.77517      20.752541      20.752541      20.752541      8937.4549      38960.594      3.8001453      9253.3489     -9638.7422    
     25400  -789.75383     -740.41721      20.749976      20.749976      20.749976      8934.1404      10679.633      3.8015551      9250.4073     -9638.6737    
     25500  -789.41178     -741.27605      20.775043      20.775043      20.775043      8966.559       39461.346      3.7878106      9252.2141     -9638.5712    
     25600  -786.8438      -741.14363      20.812214      20.812214      20.812214      9014.7741      40783.315      3.7675517      9257.3525     -9638.6178    
     25700  -788.35544     -741.96402      20.788171      20.788171      20.788171      8983.5674      7665.5478      3.7806392      9255.5712     -9638.7559    
     25800  -791.09982     -742.99099      20.729774      20.729774      20.729774      8908.0718     -50887.661      3.81268        9250.1817     -9638.8934    
     25900  -789.93355     -742.38539      20.667637      20.667637      20.667637      8828.2065     -13110.498      3.8471718      9247.8468     -9639.2599    
     26000  -791.0689      -741.80046      20.635958      20.635958      20.635958      8787.6731     -31189.753      3.864917       9244.4021     -9639.2939    
     26100  -789.98378     -741.5279       20.670459      20.670459      20.670459      8831.8229      2173.5653      3.8455965      9246.9774     -9639.0057    
     26200  -790.95378     -740.54849      20.764117      20.764117      20.764117      8952.419      -29944.456      3.7937933      9250.3924     -9638.7885    
     26300  -786.26769     -739.36665      20.811285      20.811285      20.811285      9013.5664      14138.436      3.7680564      9256.1112     -9638.641     
     26400  -782.31367     -737.77513      20.808573      20.808573      20.808573      9010.0441      21210.18       3.7695295      9258.9509     -9638.4054    
     26500  -783.27238     -736.71889      20.776643      20.776643      20.776643      8968.6302      55262.567      3.7869358      9255.7608     -9638.3012    
     26600  -782.37499     -734.37393      20.722864      20.722864      20.722864      8899.167      -5282.5868      3.8164951      9252.3151     -9637.9439    
     26700  -780.3455      -733.6323       20.744689      20.744689      20.744689      8927.3139     -5555.2661      3.8044621      9254.9186     -9637.816     
     26800  -779.06699     -733.07036      20.794325      20.794325      20.794325      8991.5477      60073.028      3.7772837      9258.4095     -9637.7607    
     26900  -779.50397     -732.62903      20.799585      20.799585      20.799585      8998.3734      311.32387      3.7744185      9258.1629     -9637.3533    
     27000  -778.84269     -731.72081      20.878623      20.878623      20.878623      9101.345      -33454.753      3.7317151      9262.4062     -9637.1168    
     27100  -777.97756     -731.22485      20.920721      20.920721      20.920721      9156.5092     -59264.35       3.7092331      9264.452      -9637.1789    
     27200  -775.52313     -731.60909      20.944314      20.944314      20.944314      9187.5232      40588.609      3.696712       9267.6887     -9637.2736    
     27300  -778.7479      -733.58344      20.852296      20.852296      20.852296      9066.9583     -40592.486      3.7458678      9261.137      -9637.7847    
     27400  -781.61773     -734.1882       20.796297      20.796297      20.796297      8994.107      -42018.439      3.7762089      9256.032      -9638.0093    
     27500  -779.66789     -733.14125      20.744954      20.744954      20.744954      8927.6557     -44609.803      3.8043164      9254.7172     -9637.9278    
     27600  -780.47374     -731.71956      20.689502      20.689502      20.689502      8856.255      -57136.47       3.8349875      9249.6922     -9637.8801    
     27700  -780.61568     -730.7676       20.686125      20.686125      20.686125      8851.9186      34354.55       3.8368662      9248.5781     -9637.7684    
     27800  -776.96921     -729.62         20.745215      20.745215      20.745215      8927.9925      29962.849      3.8041729      9254.8094     -9637.6082    
     27900  -776.49845     -729.51706      20.79919       20.79919       20.79919       8997.8609      58609.61       3.7746335      9258.2821     -9636.9753    
     28000  -774.6073      -727.91638      20.866411      20.866411      20.866411      9085.3833     -21938.396      3.7382712      9263.6185     -9636.7241    
     28100  -774.30121     -727.72575      20.850262      20.850262      20.850262      9064.3057      17301.041      3.746964       9263.2197     -9636.7591    
     28200  -775.15294     -727.16443      20.789777      20.789777      20.789777      8985.6505      40.829975      3.7797627      9258.786      -9636.5823    
     28300  -775.56249     -727.2031       20.769072      20.769072      20.769072      8958.8293     -75280.969      3.7910787      9257.5764     -9636.6148    
     28400  -774.11532     -726.95393      20.71123       20.71123       20.71123       8884.1867     -15225.775      3.8229303      9255.7185     -9636.5786    
     28500  -773.6913      -725.78385      20.667095      20.667095      20.667095      8827.5118      12365.14       3.8474745      9252.8995     -9636.6261    
     28600  -773.73893     -725.26192      20.678936      20.678936      20.678936      8842.6934     -29747.396      3.840869       9253.2455     -9636.7674    
     28700  -773.56808     -724.53379      20.751412      20.751412      20.751412      8935.9956      16917.688      3.8007658      9257.0794     -9636.4011    
     28800  -768.80498     -724.61965      20.867536      20.867536      20.867536      9086.8533      51362.436      3.7376665      9267.863      -9636.2406    
     28900  -770.8218      -725.42139      20.860574      20.860574      20.860574      9077.7618     -14016.452      3.7414098      9266.2013     -9636.3869    
     29000  -771.03927     -725.04904      20.824781      20.824781      20.824781      9031.114       57477.037      3.7607351      9263.8274     -9636.2247    
     29100  -770.58853     -723.80059      20.745454      20.745454      20.745454      8928.3013      14569.249      3.8040413      9259.4641     -9635.9457    
     29200  -771.14035     -724.73076      20.721941      20.721941      20.721941      8897.9774     -5599.5891      3.8170053      9258.4909     -9636.2421    
     29300  -774.64381     -726.6531       20.768416      20.768416      20.768416      8957.9807      8678.4045      3.7914378      9258.8942     -9636.4273    
     29400  -774.67291     -727.52136      20.774365      20.774365      20.774365      8965.6811     -4029.919       3.7881815      9259.9602     -9636.6712    
     29500  -775.93677     -727.65045      20.757472      20.757472      20.757472      8943.8264     -14079.728      3.7974381      9258.4102     -9636.5265    
     29600  -773.90196     -727.16619      20.775801      20.775801      20.775801      8967.5398      23519.644      3.7873963      9261.4796     -9636.3979    
     29700  -773.30265     -727.88157      20.812008      20.812008      20.812008      9014.5067     -3412.4476      3.7676634      9263.8627     -9636.3379    
     29800  -774.54406     -727.23417      20.830682      20.830682      20.830682      9038.7936      84021.787      3.7575398      9262.9788     -9636.2783    
     29900  -772.31501     -726.39694      20.847389      20.847389      20.847389      9060.5588     -6188.968       3.7485135      9265.1648     -9636.0901    
     30000  -773.13213     -726.2949       20.796491      20.796491      20.796491      8994.3581     -73733.891      3.7761035      9261.199      -9636.239     
     30100  -772.64931     -725.7285       20.746141      20.746141      20.746141      8929.1882     -17240.274      3.8036635      9258.0238     -9636.3812    
     30200  -774.10943     -726.07618      20.753355      20.753355      20.753355      8938.5061      1278.5832      3.7996984      9256.7327     -9636.6797    
     30300  -774.68248     -726.12714      20.810467      20.810467      20.810467      9012.5037      35421.7        3.7685007      9258.5009     -9636.6934    
     30400  -769.98121     -724.61347      20.855991      20.855991      20.855991      9071.7799     -9893.3667      3.7438769      9264.7363     -9636.6364    
     30500  -771.49767     -725.40649      20.81815       20.81815       20.81815       9022.4896      2868.8116      3.7643298      9261.3196     -9636.7566    
     30600  -771.46374     -725.13055      20.792959      20.792959      20.792959      8989.7769     -85405.953      3.7780278      9259.7476     -9637.1133    
     30700  -773.72688     -724.49497      20.764949      20.764949      20.764949      8953.4947     -70650.067      3.7933374      9255.1642     -9637.2527    
     30800  -772.74829     -726.02218      20.779004      20.779004      20.779004      8971.6888      42063.113      3.7856448      9257.7688     -9637.6105    
     30900  -771.27784     -725.44647      20.808285      20.808285      20.808285      9009.6696     -46425.501      3.7696862      9260.5639     -9637.5787    
     31000  -770.46801     -724.70108      20.83581       20.83581       20.83581       9045.4701      517.91359      3.7547664      9262.0635     -9637.383     
     31100  -769.61045     -723.70296      20.879202      20.879202      20.879202      9102.102      -16926.652      3.7314048      9264.8084     -9637.1437    
     31200  -768.50861     -722.77501      20.889586      20.889586      20.889586      9115.6889      42878.563      3.7258431      9266.0184     -9636.9152    
     31300  -769.32809     -723.18652      20.852865      20.852865      20.852865      9067.701      -27831.327      3.745561       9263.5522     -9637.2341    
     31400  -771.02232     -724.33789      20.826315      20.826315      20.826315      9033.1103      47643.948      3.7599039      9260.7938     -9637.5791    
     31500  -772.12207     -724.33721      20.819305      20.819305      20.819305      9023.9918     -15453.122      3.7637032      9259.4303     -9637.5898    
     31600  -771.10629     -724.92621      20.788786      20.788786      20.788786      8984.365       44837.401      3.7803036      9259.1581     -9637.573     
     31700  -772.39001     -725.08568      20.726238      20.726238      20.726238      8903.5141     -23935.067      3.8146317      9254.4589     -9637.7999    
     31800  -772.93508     -724.92132      20.679557      20.679557      20.679557      8843.4907     -27314.67       3.8405227      9250.9706     -9637.9777    
     31900  -773.13348     -725.44141      20.772651      20.772651      20.772651      8963.4622      11180.085      3.7891192      9256.0972     -9637.6604    
     32000  -770.7317      -724.92349      20.857936      20.857936      20.857936      9074.3185      3527.8675      3.7428295      9262.083      -9637.5322    
     32100  -770.67536     -724.26446      20.872523      20.872523      20.872523      9093.37       -39663.64       3.7349879      9262.5514     -9637.3011    
     32200  -770.45212     -723.77031      20.82875       20.82875       20.82875       9036.2785     -63790.486      3.7585857      9260.7993     -9637.1525    
     32300  -768.49478     -722.80969      20.803777      20.803777      20.803777      9003.8155     -19106.149      3.7721372      9261.5512     -9636.8319    
     32400  -770.9141      -723.38862      20.810839      20.810839      20.810839      9012.988      -29808.265      3.7682982      9259.5622     -9636.8964    
     32500  -769.58906     -723.49281      20.834632      20.834632      20.834632      9043.936      -51112.419      3.7554033      9261.9848     -9636.9541    
     32600  -770.25736     -723.45981      20.867074      20.867074      20.867074      9086.2493     -37389.352      3.7379149      9262.8447     -9636.8877    
     32700  -768.92058     -723.04517      20.939453      20.939453      20.939453      9181.1271      13122.138      3.6992873      9267.1944     -9636.9002    
     32800  -769.99861     -723.47259      20.900385      20.900385      20.900385      9129.8341      27930.816      3.7200705      9264.546      -9637.0576    
     32900  -768.94549     -723.59976      20.879991      20.879991      20.879991      9103.1335     -32416.979      3.730982       9264.4158     -9636.9129    
     33000  -770.68617     -723.552        20.936954      20.936954      20.936954      9177.8402     -15967.453      3.7006122      9265.7599     -9636.8507    
     33100  -768.47165     -724.30374      20.956731      20.956731      20.956731      9203.8727      56997.164      3.6901452      9269.5394     -9636.9773    
     33200  -772.09854     -726.26276      20.940218      20.940218      20.940218      9182.1337      48425.631      3.6988818      9266.1396     -9637.2032    
     33300  -773.61762     -727.90858      20.861193      20.861193      20.861193      9078.5699      9773.4224      3.7410768      9261.8043     -9637.505     
     33400  -774.41083     -728.16082      20.807125      20.807125      20.807125      9008.163      -25542.409      3.7703166      9258.3057     -9637.6183    
     33500  -774.30824     -727.92277      20.790099      20.790099      20.790099      8986.0675      2544.8715      3.7795873      9257.2782     -9637.6694    
     33600  -774.26848     -726.80748      20.786494      20.786494      20.786494      8981.3943      31943.618      3.7815539      9256.1825     -9637.6031    
     33700  -775.19721     -727.29906      20.730251      20.730251      20.730251      8908.6868      5566.1476      3.8124168      9252.2052     -9637.8782    
     33800  -773.85599     -725.75982      20.697758      20.697758      20.697758      8866.8617     -55732.269      3.8304         9250.7389     -9637.7871    
     33900  -771.85045     -724.4372       20.741571      20.741571      20.741571      8923.2883      8187.5131      3.8061784      9254.1904     -9637.7111    
     34000  -770.93904     -723.72591      20.783583      20.783583      20.783583      8977.6214      51977.669      3.7831432      9256.7727     -9637.3725    
     34100  -772.47901     -724.36315      20.814327      20.814327      20.814327      9017.5205      72433.206      3.7664042      9257.0965     -9637.472     
     34200  -772.32244     -724.6653       20.838123      20.838123      20.838123      9048.4828      17218.701      3.7535162      9259.0639     -9637.4302    
     34300  -772.51651     -725.83869      20.860643      20.860643      20.860643      9077.8514     -5814.3965      3.7413728      9260.3259     -9637.6501    
     34400  -774.94048     -726.6374       20.837588      20.837588      20.837588      9047.7867      34329.503      3.753805       9257.0861     -9637.7486    
     34500  -774.20271     -727.20736      20.768408      20.768408      20.768408      8957.9706      2883.0234      3.7914421      9254.6627     -9638.1583    
     34600  -776.00821     -727.76496      20.732813      20.732813      20.732813      8911.9903      47381.097      3.8110036      9251.4852     -9638.2901    
     34700  -777.94309     -728.74782      20.748448      20.748448      20.748448      8932.1679     -10392.707      3.8023946      9250.8395     -9637.9736    
     34800  -776.14845     -728.7279       20.738454      20.738454      20.738454      8919.2664     -10352.801      3.8078947      9252.5746     -9637.9517    
     34900  -777.60429     -729.20357      20.75873       20.75873       20.75873       8945.4531     -33247.098      3.7967475      9252.3885     -9638.0471    
     35000  -774.21689     -728.3919       20.765365      20.765365      20.765365      8954.0338     -2374.4251      3.7931091      9255.3972     -9638.1514    
     35100  -775.19554     -727.57625      20.836117      20.836117      20.836117      9045.8706      65470.137      3.7546001      9257.6857     -9637.9328    
     35200  -771.24017     -726.22592      20.887067      20.887067      20.887067      9112.3917     -44747.478      3.7271913      9263.5027     -9637.5102    
     35300  -770.76547     -725.06344      20.928936      20.928936      20.928936      9167.2996      42436.892      3.7048671      9265.2908     -9637.191     
     35400  -768.00302     -724.22348      20.944923      20.944923      20.944923      9188.3245      28167.369      3.6963896      9268.4199     -9637.0231    
     35500  -769.98767     -724.91972      20.896123      20.896123      20.896123      9124.249       21726.836      3.7223477      9264.6216     -9637.0507    
     35600  -772.01681     -724.90939      20.849124      20.849124      20.849124      9062.8213      42368.046      3.7475777      9260.7676     -9637.0497    
     35700  -769.41887     -724.09624      20.814856      20.814856      20.814856      9018.2079     -35415.524      3.7661171      9261.0503     -9636.8825    
     35800  -769.1799      -723.60437      20.802792      20.802792      20.802792      9002.5362      16394.983      3.7726732      9260.4668     -9636.6832    
     35900  -769.80553     -722.90705      20.767331      20.767331      20.767331      8956.5763      6615.4701      3.7920323      9257.8946     -9636.438     
     36000  -770.65462     -723.03747      20.771402      20.771402      20.771402      8961.8455     -6256.4924      3.7898028      9257.5232     -9636.3466    
     36100  -770.86381     -723.30828      20.84067       20.84067       20.84067       9051.8012      3827.2549      3.7521402      9261.231      -9636.0569    
     36200  -767.68155     -722.75873      20.882607      20.882607      20.882607      9106.5556      81668.411      3.7295799      9266.3304     -9636.2035    
     36300  -769.26783     -722.7494       20.902682      20.902682      20.902682      9132.8445     -12604.312      3.7188443      9265.4707     -9636.304     
     36400  -767.93406     -722.55728      20.886553      20.886553      20.886553      9111.719      -1033.8052      3.7274664      9265.5818     -9636.1816    
     36500  -770.30548     -722.38338      20.883234      20.883234      20.883234      9107.3758     -89981.859      3.7292441      9262.8244     -9636.2686    
     36600  -767.95211     -721.71531      20.875004      20.875004      20.875004      9096.612      -3211.5451      3.7336567      9264.0123     -9636.3294    
     36700  -768.79946     -721.4439       20.807638      20.807638      20.807638      9008.8294      42140.896      3.7700378      9259.2307     -9636.6615    
     36800  -769.31586     -721.10742      20.754242      20.754242      20.754242      8939.6523     -10467.559      3.7992112      9255.692      -9636.7511    
     36900  -769.53198     -723.05255      20.752794      20.752794      20.752794      8937.7812     -33652.63       3.8000065      9256.367      -9637.2562    
     37000  -771.75742     -724.6596       20.800251      20.800251      20.800251      8999.2379     -15353.972      3.7740559      9257.5394     -9637.3554    
     37100  -772.76815     -726.4482       20.874909      20.874909      20.874909      9096.4888      2417.9997      3.7337073      9261.1334     -9637.523     
     37200  -770.57508     -726.49621      20.907032      20.907032      20.907032      9138.5469      15936.411      3.7165238      9264.8176     -9637.5481    
     37300  -771.85992     -726.91125      20.887476      20.887476      20.887476      9112.9267      26172.114      3.7269725      9262.6482     -9637.7228    
     37400  -774.1704      -727.54907      20.779195      20.779195      20.779195      8971.9352      3232.0002      3.7855408      9255.1366     -9638.1508    
     37500  -774.91264     -727.81597      20.724663      20.724663      20.724663      8901.4849      11765.661      3.8155013      9251.5122     -9638.2404    
     37600  -778.08442     -727.31267      20.731393      20.731393      20.731393      8910.1588      45292.783      3.8117869      9248.9344     -9637.8775    
     37700  -776.47028     -727.94207      20.763472      20.763472      20.763472      8951.5847     -39659.641      3.7941468      9253.1656     -9637.6153    
     37800  -774.75814     -726.8968       20.877049      20.877049      20.877049      9099.2864     -22457.822      3.7325594      9260.0243     -9637.3698    
     37900  -771.121       -725.21038      20.961082      20.961082      20.961082      9209.6071     -8059.618       3.6878475      9266.1141     -9637.2282    
     38000  -768.42404     -724.2045       20.973448      20.973448      20.973448      9225.9161     -63641.581      3.6813284      9268.6088     -9637.2619    
     38100  -769.51095     -724.54195      20.93005       20.93005       20.93005       9168.7636     -36645.777      3.7042756      9265.8166     -9637.1555    
     38200  -770.80482     -724.76594      20.836182      20.836182      20.836182      9045.9552     -16105.678      3.754565       9260.9924     -9637.2225    
     38300  -772.36626     -724.63399      20.730669      20.730669      20.730669      8909.2252      17521.378      3.8121864      9254.5136     -9637.3417    
     38400  -773.46714     -726.62972      20.754257      20.754257      20.754257      8939.6722      18414.398      3.7992027      9256.0403     -9637.2535    
     38500  -774.19451     -727.7994       20.819381      20.819381      20.819381      9024.0903     -14474.605      3.7636621      9259.5006     -9637.325     
     38600  -774.15941     -728.36538      20.888027      20.888027      20.888027      9113.648       48011.34       3.7266775      9263.7147     -9637.0475    
     38700  -772.44133     -728.16401      20.871255      20.871255      20.871255      9091.7128     -22046.3        3.7356687      9264.8827     -9637.189     
     38800  -774.00751     -728.416        20.774717      20.774717      20.774717      8966.1369      14709.884      3.7879889      9258.2118     -9637.469     
     38900  -776.34915     -729.19276      20.701972      20.701972      20.701972      8872.278       16337.862      3.8280616      9251.6886     -9637.9404    
     39000  -778.7637      -729.86953      20.720309      20.720309      20.720309      8895.8758     -6002.667       3.817907       9250.2358     -9638.2763    
     39100  -777.25928     -729.86968      20.783223      20.783223      20.783223      8977.1543      43975.083      3.78334        9254.7357     -9638.1216    
     39200  -778.03693     -730.15876      20.824898      20.824898      20.824898      9031.2665     -7865.3839      3.7606715      9255.8474     -9637.8424    
     39300  -777.11732     -729.71171      20.848126      20.848126      20.848126      9061.5199      76529.327      3.7481159      9257.6196     -9638.0077    
     39400  -774.98118     -728.78662      20.874799      20.874799      20.874799      9096.3453      24214.536      3.7337662      9260.3086     -9637.8032    
     39500  -775.55667     -728.12643      20.84687       20.84687       20.84687       9059.8821     -39679.372      3.7487935      9257.9903     -9637.9921    
     39600  -775.97159     -728.17103      20.770347      20.770347      20.770347      8960.479       45727.378      3.7903807      9253.3367     -9637.9133    
     39700  -777.84916     -728.37755      20.764774      20.764774      20.764774      8953.2691      89236.477      3.7934331      9251.6122     -9638.1119    
     39800  -775.3938      -728.35167      20.800168      20.800168      20.800168      8999.1304     -38970.095      3.774101       9256.1424     -9638.0874    
     39900  -774.91197     -727.37929      20.803738      20.803738      20.803738      9003.7646     -21592.42       3.7721585      9256.0358     -9637.412     
     40000  -773.95565     -727.20544      20.781802      20.781802      20.781802      8975.3134      10069.013      3.784116       9256.3676     -9637.5384    
     40100  -774.67334     -725.82051      20.71221       20.71221       20.71221       8885.4478      22828.115      3.8223878      9251.6623     -9637.218     
     40200  -772.88553     -723.9556       20.653163      20.653163      20.653163      8809.6712     -19403.691      3.8552661      9249.6638     -9636.9353    
     40300  -774.38049     -724.64323      20.699453      20.699453      20.699453      8869.04       -6296.4092      3.8294592      9251.5457     -9636.7146    
     40400  -773.47332     -724.87195      20.758263      20.758263      20.758263      8944.8498      23974.659      3.7970036      9255.6065     -9636.3046    
     40500  -771.92834     -724.25915      20.791876      20.791876      20.791876      8988.3722      14789.953      3.7786182      9258.4306     -9636.5839    
     40600  -772.29471     -723.39384      20.722752      20.722752      20.722752      8899.0228      18632.834      3.8165569      9253.685      -9636.4714    
     40700  -771.12196     -722.76409      20.752539      20.752539      20.752539      8937.4519      15437.519      3.8001465      9256.2271     -9636.3216    
     40800  -768.04484     -721.60233      20.802183      20.802183      20.802183      9001.746       22497.679      3.7730044      9261.2747     -9635.9229    
     40900  -768.2015      -721.06828      20.821439      20.821439      20.821439      9026.7666     -10308.156      3.7625462      9261.8699     -9635.8675    
     41000  -768.37997     -721.26241      20.846841      20.846841      20.846841      9059.8447     -3350.4984      3.7488089      9263.3772     -9635.9194    
     41100  -767.36283     -721.86422      20.812635      20.812635      20.812635      9015.3213      9658.2043      3.767323       9262.789      -9635.7511    
     41200  -766.19156     -721.68467      20.808802      20.808802      20.808802      9010.3417     -36388.272      3.769405       9264.1164     -9636.0316    
     41300  -767.70867     -721.17066      20.791004      20.791004      20.791004      8987.2404      27761.953      3.7790941      9261.036      -9635.6717    
     41400  -766.95522     -720.9018       20.823618      20.823618      20.823618      9029.6009      17674.379      3.7613652      9263.567      -9635.768     
     41500  -766.49211     -719.9921       20.913207      20.913207      20.913207      9146.6467      1409.2028      3.7132326      9267.7913     -9635.5339    
     41600  -764.41262     -720.018        20.932501      20.932501      20.932501      9171.9853      72892.666      3.7029744      9270.3404     -9635.5584    
     41700  -764.14789     -719.85843      20.908241      20.908241      20.908241      9140.1328     -32854.513      3.7158789      9269.4444     -9635.6425    
     41800  -764.96036     -720.3775       20.909414      20.909414      20.909414      9141.6707      66810.588      3.7152538      9268.4737     -9635.6602    
     41900  -765.71846     -720.16031      20.858688      20.858688      20.858688      9075.299       12954.94       3.7424251      9265.428      -9635.8996    
     42000  -767.00088     -720.02518      20.826434      20.826434      20.826434      9033.2653      58.983686      3.7598394      9262.528      -9635.8145    
     42100  -767.67607     -720.80132      20.801515      20.801515      20.801515      9000.8788     -10100.78       3.7733679      9260.8027     -9635.6296    
     42200  -768.74058     -721.6522       20.845862      20.845862      20.845862      9058.5689      43313.632      3.7493369      9262.8924     -9635.7342    
     42300  -769.71419     -722.19389      20.796817      20.796817      20.796817      8994.7817     -34036.053      3.7759256      9260.0372     -9635.8908    
     42400  -772.28979     -723.03906      20.739456      20.739456      20.739456      8920.5586     -77576.828      3.8073431      9254.9521     -9636.2804    
     42500  -771.22257     -723.4443       20.780784      20.780784      20.780784      8973.9938     -4894.6886      3.7846724      9258.4079     -9636.0849    
     42600  -771.03275     -723.9878       20.861783      20.861783      20.861783      9079.3401     -5256.244       3.7407594      9262.6635     -9636.2401    
     42700  -771.51712     -723.8847       20.909639      20.909639      20.909639      9141.9664     -64052.593      3.7151336      9264.2383     -9635.9576    
     42800  -770.8292      -725.35435      20.874133      20.874133      20.874133      9095.4744      2596.5348      3.7341237      9264.5185     -9636.3489    
     42900  -773.85897     -725.85562      20.835663      20.835663      20.835663      9045.2785     -27510.021      3.7548459      9259.8194     -9636.3965    
     43000  -771.96231     -725.95007      20.796734      20.796734      20.796734      8994.674      -13443.089      3.7759709      9260.0007     -9636.456     
     43100  -772.04151     -725.50108      20.7814        20.7814        20.7814        8974.7926      33932.169      3.7843356      9259.1793     -9636.4221    
     43200  -772.58818     -725.39813      20.826747      20.826747      20.826747      9033.6717      17249.546      3.7596703      9260.5231     -9636.3944    
     43300  -770.99638     -724.67388      20.885803      20.885803      20.885803      9110.7379      18542.503      3.7278678      9264.3591     -9636.4305    
     43400  -768.96827     -723.78373      20.915991      20.915991      20.915991      9150.3006      15132.203      3.7117498      9266.907      -9636.2991    
     43500  -768.62883     -723.18553      20.888206      20.888206      20.888206      9113.8826      10872.833      3.7265816      9265.4388     -9636.4269    
     43600  -770.4684      -723.23431      20.860374      20.860374      20.860374      9077.5009      7518.6953      3.7415173      9262.1415     -9636.5711    
     43700  -769.58526     -723.16062      20.850197      20.850197      20.850197      9064.2209     -33284.861      3.746999       9262.1945     -9636.715     
     43800  -769.39492     -722.91995      20.830363      20.830363      20.830363      9038.3779      38740.796      3.7577127      9260.888      -9636.5558    
     43900  -770.44821     -721.79208      20.779237      20.779237      20.779237      8971.9897      19683.387      3.7855178      9256.799      -9636.7092    
     44000  -768.51441     -721.68151      20.79026       20.79026       20.79026       8986.2759     -63719.778      3.7794997      9258.9493     -9637.0576    
     44100  -768.13723     -721.38951      20.878892      20.878892      20.878892      9101.6959     -6902.3619      3.7315713      9262.3594     -9637.0099    
     44200  -764.76199     -720.19899      20.980764      20.980764      20.980764      9235.5744      44763.618      3.6774786      9269.6559     -9637.1087    
     44300  -765.09044     -721.20772      20.960627      20.960627      20.960627      9209.0065      133.28209      3.6880881      9268.8048     -9637.2867    
     44400  -769.74761     -723.31221      20.884229      20.884229      20.884229      9108.6775     -32408.129      3.7287111      9261.8876     -9637.6349    
     44500  -769.31832     -723.74488      20.886146      20.886146      20.886146      9111.1862     -1594.0919      3.7276844      9262.7848     -9637.621     
     44600  -769.72216     -724.42726      20.862896      20.862896      20.862896      9080.7937     -18207.236      3.7401606      9261.872      -9637.6586    
     44700  -770.48602     -724.64793      20.813308      20.813308      20.813308      9016.1955     -6151.4714      3.7669577      9259.3936     -9637.8039    
     44800  -772.77309     -725.11086      20.786827      20.786827      20.786827      8981.8257     -47289.678      3.7813723      9255.7773     -9637.5388    
     44900  -774.34702     -726.06133      20.785248      20.785248      20.785248      8979.779      -49510.147      3.7822342      9254.7272     -9637.6264    
     45000  -773.4492      -726.37728      20.824952      20.824952      20.824952      9031.3372      23408.878      3.7606421      9257.9935     -9637.6497    
     45100  -771.57704     -725.43365      20.844503      20.844503      20.844503      9056.7971     -4029.7025      3.7500704      9260.4288     -9637.27      
     45200  -773.6931      -725.52406      20.802774      20.802774      20.802774      9002.5129     -45091.557      3.7726829      9256.6833     -9637.3155    
     45300  -773.07549     -725.00485      20.788054      20.788054      20.788054      8983.4158      57038.541      3.780703       9256.4817     -9637.3922    
     45400  -772.14076     -723.7965       20.783676      20.783676      20.783676      8977.7409      40778.04       3.7830928      9256.1441     -9637.1753    
     45500  -769.76634     -724.09321      20.808776      20.808776      20.808776      9010.3079     -599.05591      3.7694191      9260.2445     -9637.1858    
     45600  -771.98957     -725.18003      20.842072      20.842072      20.842072      9053.6289      35701.212      3.7513827      9260.1009     -9637.3593    
     45700  -770.54158     -724.89708      20.83914       20.83914       20.83914       9049.8089      27660.211      3.7529662      9260.9913     -9636.9607    
     45800  -770.88551     -724.84653      20.849329      20.849329      20.849329      9063.0887     -5142.8752      3.7474671      9261.5817     -9636.8484    
[...]
    989100  -777.11032     -726.92522      20.88398       20.88398       20.88398       9108.3519     -5781.6229      3.7288444      9248.4669     -9637.3418    
    989200  -776.90769     -727.26459      20.929496      20.929496      20.929496      9168.0366     -8224.6781      3.7045693      9251.3152     -9637.2573    
    989300  -777.27863     -728.15733      20.951139      20.951139      20.951139      9196.5078      13276.959      3.6931004      9252.4191     -9637.5466    
    989400  -776.27967     -727.81282      20.929691      20.929691      20.929691      9168.2918      11523.823      3.7044662      9252.2751     -9637.6564    
    989500  -777.54626     -728.9169       20.868874      20.868874      20.868874      9088.6019     -13809.486      3.7369474      9248.8233     -9637.9824    
    989600  -780.38134     -730.55441      20.827376      20.827376      20.827376      9034.4908     -24730.218      3.7593294      9244.9366     -9638.1773    
    989700  -782.87267     -731.93094      20.793219      20.793219      20.793219      8990.1132     -34268.783      3.7778865      9241.6668     -9638.5144    
    989800  -783.36312     -732.96976      20.793009      20.793009      20.793009      8989.8416      4056.6339      3.7780006      9241.7355     -9638.5117    
    989900  -785.13514     -733.34262      20.770845      20.770845      20.770845      8961.1244     -45467.296      3.7901078      9238.5916     -9638.7339    
    990000  -785.04376     -732.94029      20.800546      20.800546      20.800546      8999.6202      33201.378      3.7738956      9239.832      -9638.7206    
    990100  -780.9612      -732.19803      20.887784      20.887784      20.887784      9113.3306      3699.1619      3.7268073      9247.6349     -9638.3443    
    990200  -779.7132      -731.37809      20.904281      20.904281      20.904281      9134.9401      942.41893      3.7179912      9248.9343     -9638.2513    
    990300  -781.32926     -730.38465      20.840436      20.840436      20.840436      9051.4969     -33071.832      3.7522663      9243.4027     -9638.2209    
    990400  -782.8628      -730.29733      20.78707       20.78707       20.78707       8982.1406      17779.693      3.7812397      9238.994      -9638.4633    
    990500  -782.35604     -729.9006       20.772116      20.772116      20.772116      8962.7692      8977.8541      3.7894122      9238.1512     -9638.1533    
    990600  -780.90022     -728.563        20.834943      20.834943      20.834943      9044.3417     -55772.546      3.7552348      9242.7937     -9637.8285    
    990700  -778.64549     -728.11164      20.86693       20.86693       20.86693       9086.0619      36978.329      3.737992       9246.1432     -9637.7543    
    990800  -775.4073      -726.24734      20.893221      20.893221      20.893221      9120.4488      9302.8126      3.7238986      9249.2622     -9637.669     
    990900  -774.44708     -725.27415      20.929706      20.929706      20.929706      9168.3116     -39762.692      3.7044582      9251.2859     -9637.5183    
    991000  -772.98747     -724.80458      20.894835      20.894835      20.894835      9122.5623      7885.9586      3.7230359      9250.4236     -9637.3978    
    991100  -773.84271     -723.6462       20.859383      20.859383      20.859383      9076.2063     -4950.4925      3.742051       9246.5862     -9637.362     
    991200  -773.4784      -722.82828      20.833414      20.833414      20.833414      9042.3505     -15987.723      3.7560618      9244.7774     -9637.5421    
    991300  -772.94763     -721.70478      20.844256      20.844256      20.844256      9056.4757      13471.273      3.7502035      9244.4808     -9637.2523    
    991400  -772.25329     -721.28549      20.856794      20.856794      20.856794      9072.8281      35355.774      3.7434443      9245.6467     -9637.3256    
    991500  -770.64581     -721.31199      20.902018      20.902018      20.902018      9131.9741     -25690.07       3.7191988      9249.6366     -9637.2443    
    991600  -770.93629     -721.40626      20.935348      20.935348      20.935348      9175.7288     -1659.8011      3.7014637      9250.9523     -9637.0925    
    991700  -768.86038     -720.39031      20.945807      20.945807      20.945807      9189.4873     -47251.945      3.6959218      9252.7433     -9637.0976    
    991800  -769.97092     -720.30579      20.990372      20.990372      20.990372      9248.268       37065.939      3.6724311      9253.5214     -9636.9898    
    991900  -768.85774     -720.66005      20.970949      20.970949      20.970949      9222.6181     -27367.622      3.6826448      9253.554      -9637.0551    
    992000  -770.8294      -721.58096      20.914165      20.914165      20.914165      9147.9041      8224.8754      3.7127222      9249.5382     -9637.373     
    992100  -772.82608     -722.4342       20.861784      20.861784      20.861784      9079.3413     -8471.2271      3.7407589      9245.2684     -9637.3203    
    992200  -774.36835     -722.50539      20.803435      20.803435      20.803435      9003.3716     -5714.0399      3.7723231      9240.836      -9637.526     
    992300  -773.24371     -721.84049      20.744245      20.744245      20.744245      8926.7407      32120.88       3.8047063      9238.8584     -9637.6447    
    992400  -773.2508      -722.12124      20.741112      20.741112      20.741112      8922.6967      5266.4708      3.8064307      9239.0499     -9637.4989    
    992500  -775.98112     -724.1113       20.843527      20.843527      20.843527      9055.5252      32194.274      3.7505971      9243.4003     -9637.4905    
    992600  -774.409       -724.97136      20.918173      20.918173      20.918173      9153.1646      46461.75       3.7105885      9248.9908     -9637.2834    
    992700  -772.852       -725.58964      20.994937      20.994937      20.994937      9254.3028     -31700.438      3.6700363      9254.8936     -9637.4957    
    992800  -773.14882     -725.59194      20.999525      20.999525      20.999525      9260.371      -8915.5304      3.6676313      9254.6795     -9637.2735    
    992900  -774.55707     -726.26158      20.94655       20.94655       20.94655       9190.4651     -20258.75       3.6955286      9251.2395     -9637.355     
    993000  -775.28        -726.48865      20.905319      20.905319      20.905319      9136.3005      33828.696      3.7174376      9248.8787     -9637.4757    
    993100  -777.8809      -727.41528      20.881788      20.881788      20.881788      9105.4846      31012.882      3.7300186      9245.8823     -9637.3921    
    993200  -777.6971      -727.02346      20.895728      20.895728      20.895728      9123.7315     -6541.6397      3.7225588      9246.7351     -9637.3805    
    993300  -777.62845     -727.01758      20.881384      20.881384      20.881384      9104.9564      16153.779      3.730235       9246.0746     -9637.6479    
    993400  -778.78282     -727.45732      20.810468      20.810468      20.810468      9012.5054      41651.373      3.7685         9241.2776     -9637.8117    
    993500  -777.16861     -726.71805      20.760806      20.760806      20.760806      8948.1366      4859.1874      3.7956089      9239.4501     -9638.038     
    993600  -778.09887     -726.23347      20.800866      20.800866      20.800866      9000.0366      2849.1614      3.773721       9240.6059     -9637.8377    
    993700  -774.54241     -724.83564      20.887974      20.887974      20.887974      9113.5786     -43891.843      3.7267059      9247.9602     -9637.4189    
    993800  -770.92586     -721.50207      20.997526      20.997526      20.997526      9257.7267      22179.778      3.6686789      9255.3163     -9636.8513    
    993900  -766.82315     -719.43996      21.056133      21.056133      21.056133      9335.4623     -12201.095      3.6381302      9261.089      -9636.4737    
    994000  -766.15268     -718.94081      21.059506      21.059506      21.059506      9339.9501      36326.192      3.6363821      9262.0742     -9636.4574    
    994100  -765.90425     -720.63783      20.998336      20.998336      20.998336      9258.7991      14895.405      3.668254       9260.2068     -9636.5902    
    994200  -771.32787     -722.27296      20.910575      20.910575      20.910575      9143.1934     -36522.879      3.7146351      9251.2491     -9637.05      
    994300  -772.08368     -722.83945      20.83243       20.83243       20.83243       9041.0689      36295.04       3.7565942      9246.5896     -9637.2381    
    994400  -775.5595      -723.89417      20.832284      20.832284      20.832284      9040.8795      43162.218      3.7566729      9244.0331     -9637.306     
    994500  -775.20025     -724.85125      20.875521      20.875521      20.875521      9097.2882     -55562.689      3.7333792      9247.1395     -9637.3483    
    994600  -776.00532     -724.92788      20.905403      20.905403      20.905403      9136.4113      29857.051      3.7173925      9247.8946     -9637.47      
    994700  -772.70521     -723.51325      20.890085      20.890085      20.890085      9116.3423      59136.18       3.7255761      9249.1746     -9637.4118    
    994800  -773.42951     -723.2005       20.881324      20.881324      20.881324      9104.8766      2298.5875      3.7302677      9247.0572     -9637.5801    
    994900  -774.92616     -723.38615      20.868993      20.868993      20.868993      9088.7568      228.72341      3.7368837      9244.6507     -9637.7276    
    995000  -773.56157     -723.3789       20.880691      20.880691      20.880691      9104.0493     -19713.454      3.7306066      9246.4808     -9637.7046    
    995100  -772.17906     -723.04218      20.915421      20.915421      20.915421      9149.5519     -9352.3882      3.7120536      9249.4461     -9637.4431    
    995200  -770.45543     -723.13682      20.923253      20.923253      20.923253      9159.8342     -7790.4655      3.7078866      9251.9048     -9637.2733    
    995300  -772.63593     -722.44068      20.857584      20.857584      20.857584      9073.8592      22741.954      3.743019       9246.1019     -9636.898     
    995400  -772.86446     -722.80913      20.821577      20.821577      20.821577      9026.9466      15370.968      3.7624712      9244.1676     -9637.1987    
    995500  -772.28081     -723.38373      20.847104      20.847104      20.847104      9060.1884      11387.306      3.7486667      9246.7139     -9637.2896    
    995600  -771.43504     -722.74321      20.943069      20.943069      20.943069      9185.8847     -8880.6696      3.6973714      9252.7477     -9637.1232    
    995700  -772.73276     -724.82925      20.971196      20.971196      20.971196      9222.9452      32921.59       3.6825142      9253.9502     -9637.1973    
    995800  -773.96788     -726.20005      20.935834      20.935834      20.935834      9176.3679      1212.9216      3.7012059      9252.1636     -9637.2854    
    995900  -776.1378      -726.87427      20.842469      20.842469      20.842469      9054.1464     -16974.958      3.7511683      9245.9074     -9637.4905    
    996000  -776.94445     -726.41148      20.803279      20.803279      20.803279      9003.1679      1622.655       3.7724085      9242.5685     -9637.684     
    996100  -778.21114     -726.85544      20.831352      20.831352      20.831352      9039.6654     -26795.296      3.7571775      9242.8672     -9637.5446    
    996200  -776.19878     -726.10478      20.889555      20.889555      20.889555      9115.6489      718.29246      3.7258595      9247.4122     -9637.4455    
    996300  -775.45044     -725.59666      20.912786      20.912786      20.912786      9146.095       16482.071      3.7134566      9248.9716     -9637.4232    
    996400  -771.70189     -724.25208      20.925993      20.925993      20.925993      9163.4338      3051.7573      3.7064301      9252.676      -9637.0897    
    996500  -771.26706     -722.88718      20.972185      20.972185      20.972185      9224.2497      71287.468      3.6819935      9254.681      -9637.0018    
    996600  -770.3336      -723.40044      20.965037      20.965037      20.965037      9214.8215     -24378.625      3.6857607      9255.0489     -9636.8821    
    996700  -773.99135     -724.24477      20.902577      20.902577      20.902577      9132.7066      35491.542      3.7189005      9248.882      -9636.8682    
    996800  -774.37156     -724.34249      20.86623       20.86623       20.86623       9085.147      -12230.434      3.7383685      9247.3305     -9636.9598    
    996900  -774.42018     -725.20317      20.851602      20.851602      20.851602      9066.0538     -21198.72       3.7462415      9246.842      -9636.9257    
    997000  -774.59579     -724.34991      20.880363      20.880363      20.880363      9103.6206     -18056.806      3.7307823      9248.3506     -9636.7224    
    997100  -773.68565     -724.56095      20.901505      20.901505      20.901505      9131.301       10677.872      3.7194729      9250.6162     -9636.8006    
    997200  -773.29129     -723.70915      20.891288      20.891288      20.891288      9117.9173      12748.431      3.7249326      9249.8208     -9636.4591    
    997300  -772.09937     -722.55576      20.81882       20.81882       20.81882       9023.3614      843.47497      3.7639662      9246.5867     -9636.6195    
    997400  -773.50899     -722.74552      20.777491      20.777491      20.777491      8969.7287      10274.622      3.7864721      9242.5221     -9637.1443    
    997500  -773.09842     -722.74711      20.825765      20.825765      20.825765      9032.3946      16030.878      3.7602018      9245.3903     -9637.1258    
    997600  -772.93304     -723.06631      20.890355      20.890355      20.890355      9116.696       28833.644      3.7254315      9248.9277     -9637.0501    
    997700  -770.48783     -722.99279      20.937055      20.937055      20.937055      9177.9728      45368.266      3.7005587      9254.0198     -9636.9602    
    997800  -771.90586     -723.21873      20.93904       20.93904       20.93904       9180.5841     -28450.792      3.6995061      9253.3486     -9637.0928    
    997900  -772.18276     -723.99781      20.884583      20.884583      20.884583      9109.1409      30033.929      3.7285214      9250.5038     -9637.1909    
    998000  -772.75733     -723.87625      20.859544      20.859544      20.859544      9076.4172      20855.416      3.7419641      9248.8995     -9637.2919    
    998100  -772.99735     -722.96648      20.788468      20.788468      20.788468      8983.9533     -38348.267      3.7804768      9244.284      -9637.3842    
    998200  -773.99654     -723.14926      20.791464      20.791464      20.791464      8987.8376      28402.999      3.778843       9243.4754     -9637.3263    
    998300  -774.2991      -723.48176      20.835969      20.835969      20.835969      9045.6779     -87448.232      3.7546801      9246.639      -9637.3201    
    998400  -775.31747     -725.39511      20.882759      20.882759      20.882759      9106.754      -18933.634      3.7294987      9249.269      -9637.208     
    998500  -772.78775     -725.00684      20.996001      20.996001      20.996001      9255.7105      52023.465      3.6694781      9257.3398     -9637.1538    
    998600  -770.65108     -724.34623      21.04075       21.04075       21.04075       9315.0169     -59005.076      3.6461154      9261.2532     -9637.0856    
    998700  -770.77787     -724.47977      21.019785      21.019785      21.019785      9287.2006     -21270.183      3.657036       9260.5094     -9637.2142    
    998800  -774.54119     -726.43615      20.862026      20.862026      20.862026      9079.6571     -31480.583      3.7406288      9250.118      -9637.5764    
    998900  -775.65907     -725.02352      20.73699       20.73699       20.73699       8917.3777     -15762.66       3.8087012      9241.4856     -9637.6237    
    999000  -776.11935     -724.36966      20.743814      20.743814      20.743814      8926.1837     -12096.039      3.8049438      9241.2        -9637.0359    
    999100  -775.65885     -725.34223      20.776195      20.776195      20.776195      8968.0509     -18917.61       3.7871804      9244.0874     -9637.0129    
    999200  -775.22982     -725.10317      20.876411      20.876411      20.876411      9098.4524     -6953.4874      3.7329015      9249.942      -9636.6268    
    999300  -774.30735     -724.09542      20.919366      20.919366      20.919366      9154.7308      27096.839      3.7099536      9252.0544     -9636.3558    
    999400  -770.2871      -723.16674      20.8874        20.8874        20.8874        9112.8281      44316.991      3.7270128      9254.0876     -9636.3236    
    999500  -773.39827     -723.13483      20.836054      20.836054      20.836054      9045.7889      46972.815      3.754634       9248.1165     -9636.4152    
    999600  -774.49405     -724.79751      20.818082      20.818082      20.818082      9022.4013      24315.566      3.7643667      9246.8237     -9636.5517    
    999700  -777.4241      -726.29103      20.829598      20.829598      20.829598      9037.3831     -9448.3781      3.7581263      9245.5917     -9636.8496    
    999800  -777.18498     -726.74895      20.852895      20.852895      20.852895      9067.7399      53793.351      3.7455449      9247.2977     -9636.7255    
    999900  -777.94589     -727.68432      20.901196      20.901196      20.901196      9130.8966      42124.44       3.7196377      9249.7434     -9636.9377    
   1000000  -780.14011     -729.40419      20.860658      20.860658      20.860658      9077.8708     -19742.489      3.7413649      9246.2366     -9637.4837    
Loop time of 751.263 on 8 procs for 1000000 steps with 1024 atoms

Performance: 11.501 ns/day, 2.087 hours/ns, 1331.092 timesteps/s
99.5% CPU use with 8 MPI tasks x 1 OpenMP threads

MPI task timing breakdown:
Section |  min time  |  avg time  |  max time  |%varavg| %total
---------------------------------------------------------------
Pair    | 164.85     | 175.61     | 186.31     |  55.0 | 23.38
Bond    | 1.7009     | 1.8056     | 2.1234     |   9.6 |  0.24
Kspace  | 221.05     | 231.5      | 241.25     |  46.6 | 30.81
Neigh   | 0.0058811  | 0.0059742  | 0.0060435  |   0.1 |  0.00
Comm    | 75.274     | 75.728     | 76.176     |   3.5 | 10.08
Output  | 3.4512     | 3.465      | 3.5544     |   1.8 |  0.46
Modify  | 249.85     | 258.21     | 259.79     |  19.7 | 34.37
Other   |            | 4.939      |            |       |  0.66

Nlocal:            128 ave         128 max         128 min
Histogram: 8 0 0 0 0 0 0 0 0 0
Nghost:           3328 ave        3328 max        3328 min
Histogram: 8 0 0 0 0 0 0 0 0 0
Neighs:        35096.2 ave       35293 max       34955 min
Histogram: 1 2 0 1 1 0 2 0 0 1

Total # of neighbors = 280770
Ave neighs/atom = 274.18945
Ave special neighs/atom = 3
Neighbor list builds = 24
Dangerous builds = 0

write_data 	    out.lammps nocoeff
System init for write_data ...
PPPM initialization ...
  using 12-bit tables for long-range coulomb (src/kspace.cpp:342)
  G vector (1/distance) = 0.38506035
  grid = 20 20 20
  stencil order = 7
  estimated absolute RMS force accuracy = 0.0002914118
  estimated relative force accuracy = 8.7757797e-07
  using single precision MKL FFT
  3d grid and FFT values/proc = 6859 1200
----------------------------------------------------------
Using INTEL Package without Coprocessor.
Compiler: Intel Classic C++ 19.10.0 / Intel(R) C++ g++ 8.5 mode
SIMD compiler directives: Enabled
Precision: mixed
----------------------------------------------------------
Generated 0 of 6 mixed pair_coeff terms from geometric mixing rule
Total wall time: 0:12:31
