LAMMPS data file via write_data, version 23 Jun 2022, timestep = 1000000

1024 atoms
4 atom types
768 bonds
3 bond types

-1.0243352809172508 19.836322502159256 xlo xhi
-1.0243352809172508 19.836322502159256 ylo yhi
-1.0243352809172508 19.836322502159256 zlo zhi

Masses

1 39.748
2 0.2
3 39.748
4 0.2

Atoms # full

1 1 1 0 2.922315546356339 0.16671386247192835 0.012164550835157984 0 0 0
2 1 2 0.5 2.9104142284733014 0.1557205888011088 -0.010177966916422265 0 0 0
3 1 3 0 3.269253962905954 0.49958929545219855 0.1492178149528704 0 0 0
4 1 4 -0.5 3.281091251542762 0.5069579207023797 0.17082628564786098 0 0 0
17 5 1 0 0.34979214381752205 2.604177033370626 0.22281299877896302 0 0 0
18 5 2 0.5 0.34230194013725035 2.583218651973403 0.200835186861921 0 0 0
19 5 3 0 0.5551740866364234 2.954038882981098 0.5151259922990368 0 0 0
20 5 4 -0.5 0.5643367765436956 2.9772026103770077 0.5392004210817811 0 0 0
129 33 1 0 0.1636026303232688 0.30535216904713636 2.842682386278134 0 0 0
130 33 2 0.5 0.14860526957324272 0.28854980878694303 2.822553828537472 0 0 0
131 33 3 0 0.37234784873921883 0.5521842967156863 3.224107784413635 0 0 0
132 33 4 -0.5 0.39009541863685393 0.5663726747410336 3.2385478972459008 0 0 0
145 37 1 0 2.6153810239611164 2.7435557177867977 2.941918331689914 0 0 0
146 37 2 0.5 2.615339552919327 2.7294228906713145 2.92780978349803 0 0 0
147 37 3 0 2.7298576576863782 3.1148816612364865 3.256535956883846 0 0 0
148 37 4 -0.5 2.726750316006764 3.1304379293522167 3.2767661317555064 0 0 0
21 6 1 0 5.3728874859093665 2.9552328478465424 0.4968090791530373 0 0 0
22 6 2 0.5 5.357419303821435 2.950988318493386 0.46315577833269106 0 0 0
23 6 3 0 5.553121514045836 3.0935417299795205 0.9421903339219546 0 0 0
24 6 4 -0.5 5.568456977233603 3.105769042522327 0.9809443031464163 0 0 0
133 34 1 0 5.126647569320114 0.22100847387003544 2.933945205298382 0 0 0
134 34 2 0.5 5.13243607936102 0.21327405483055087 2.9123407988106336 0 0 0
135 34 3 0 4.892341230344357 0.4421739673526883 3.3162757048532 0 0 0
136 34 4 -0.5 4.890306820388964 0.4505235559418832 3.3423392412911337 0 0 0
5 2 1 0 8.169252984354056 0.31440755187620356 0.3824112525794526 0 0 0
6 2 2 0.5 8.147675479409102 0.29305726663189596 0.35190189852030057 0 0 0
7 2 3 0 8.407494522833439 0.5257288771404751 0.767866820991119 0 0 0
8 2 4 -0.5 8.41217992967621 0.5429400156087836 0.7935764046031594 0 0 0
149 38 1 0 7.919680722199626 3.0266445363618786 2.9555439910464827 0 0 0
150 38 2 0.5 7.925790489529087 3.0156899041694274 2.92908272886191 0 0 0
151 38 3 0 7.825333081980874 3.338988887224968 3.334400367069309 0 0 0
152 38 4 -0.5 7.818151669215816 3.352068359573154 3.357211885442209 0 0 0
33 9 1 0 3.0616965214047553 5.413912515007445 0.35559968121418695 0 0 0
34 9 2 0.5 3.048551215804001 5.391597984932661 0.3316286226607823 0 0 0
35 9 3 0 3.269247948945806 5.67478399348554 0.728226862073342 0 0 0
36 9 4 -0.5 3.2853108688879185 5.701518869606376 0.7507811797484578 0 0 0
161 41 1 0 0.2701638574777841 5.5322519092076705 3.0446683415351044 0 0 0
162 41 2 0.5 0.26866237393465703 5.520690923835381 3.0189011687225453 0 0 0
163 41 3 0 0.32056729265824313 5.783112121287863 3.474249323485382 0 0 0
164 41 4 -0.5 0.32564858059624546 5.801269583366605 3.5032976000442275 0 0 0
49 13 1 0 0.43490028190857216 7.910357912952947 0.31864081114614046 0 0 0
50 13 2 0.5 0.4197872303575422 7.896769739719363 0.2922920101089662 0 0 0
51 13 3 0 0.5859658591461451 8.133948349931503 0.7395562953367272 0 0 0
52 13 4 -0.5 0.5977045045860673 8.152882992978517 0.7691497075809215 0 0 0
177 45 1 0 3.0717731014412655 7.966493832388808 3.0085267155725472 0 0 0
178 45 2 0.5 3.0638817730442884 7.944798399970883 2.991359321505627 0 0 0
179 45 3 0 3.3335926840080554 8.194303696432538 3.3684283979400482 0 0 0
180 45 4 -0.5 3.338432563339 8.217544184790677 3.3796115017181645 0 0 0
165 42 1 0 5.324692930441048 5.1696340896953705 3.1552932354849204 0 0 0
166 42 2 0.5 5.323080238968287 5.1466844838107155 3.1212785467345547 0 0 0
167 42 3 0 5.279063691283192 5.5155299280287435 3.5134388290024234 0 0 0
168 42 4 -0.5 5.276117289397017 5.545491569616222 3.5467200261383662 0 0 0
37 10 1 0 8.025229968016184 5.367104960684212 0.17859965936889638 0 0 0
38 10 2 0.5 8.009060228187876 5.358350404761944 0.15107967004822623 0 0 0
39 10 3 0 8.371908156690836 5.438433289693653 0.5317413640322224 0 0 0
40 10 4 -0.5 8.39241051213185 5.442133389942477 0.5620814676755524 0 0 0
53 14 1 0 5.525978518551826 7.902354303243397 0.5378408809677901 0 0 0
54 14 2 0.5 5.506957025082684 7.8791826493731385 0.5107816214114237 0 0 0
55 14 3 0 5.854819533791972 8.021895366284069 0.8949603994853603 0 0 0
56 14 4 -0.5 5.873916456937388 8.034850893198545 0.9170360876591774 0 0 0
181 46 1 0 8.052604739404128 7.929620224012849 2.8193486930383505 0 0 0
182 46 2 0.5 8.03938377670823 7.921358580590662 2.7991057992010613 0 0 0
183 46 3 0 8.219909671094674 8.014171806139277 3.2828521883130652 0 0 0
184 46 4 -0.5 8.232886358635634 8.018745470125335 3.2975183620128576 0 0 0
257 65 1 0 2.494339794499705 0.06752089705486915 5.828447968845585 0 0 0
258 65 2 0.5 2.51648709852535 0.06636924011596336 5.806421478286723 0 0 0
273 69 1 0 -0.10034271733913722 2.8584111718795686 5.544285868440796 0 0 0
274 69 2 0.5 -0.10028812460184791 2.84383908739781 5.5188670952501635 0 0 0
275 69 3 0 -0.16666932292001935 3.149728736083803 5.94519732400178 0 0 0
276 69 4 -0.5 -0.17348743891805019 3.1677801396706133 5.97334589728442 0 0 0
259 65 3 0 2.055492761360551 0.09829316632983 6.066005857075712 0 0 0
260 65 4 -0.5 2.0293986082375675 0.1016375162027232 6.082705087484235 0 0 0
385 97 1 0 -0.1566764194822729 0.2546878500184426 8.090453236922032 0 0 0
386 97 2 0.5 -0.13570052550596237 0.24234357555475664 8.054262721051137 0 0 0
387 97 3 0 -0.3068999218090003 0.39865848320986913 8.54510584071436 0 0 0
388 97 4 -0.5 -0.329569266251889 0.4045560083180853 8.579945914324181 0 0 0
401 101 1 0 2.6935040724629733 2.896572348587528 8.125891346905949 0 0 0
402 101 2 0.5 2.7115551091007943 2.8849989702201846 8.09689447177325 0 0 0
403 101 3 0 2.5324608975995635 3.001006815100409 8.587556968115827 0 0 0
404 101 4 -0.5 2.5107907381489656 3.0121358408686283 8.603586423067629 0 0 0
277 70 1 0 5.026563452976823 2.5712666278364087 5.642950890330981 0 0 0
278 70 2 0.5 5.051484536568699 2.5606262786706084 5.626777243398793 0 0 0
279 70 3 0 4.636181956281324 2.749423382994746 5.899541426426038 0 0 0
280 70 4 -0.5 4.616097514569939 2.757711629627371 5.921647551630973 0 0 0
261 66 1 0 7.75208513308897 0.15127105418744644 5.416549974323794 0 0 0
262 66 2 0.5 7.7658827642158075 0.12887431106694203 5.402073315179254 0 0 0
263 66 3 0 7.533014572552528 0.4150044811492222 5.780451615564866 0 0 0
264 66 4 -0.5 7.516669032210093 0.42811195446485667 5.795692477492547 0 0 0
389 98 1 0 5.4232733341690285 0.046759553977688585 8.120706347492705 0 0 0
390 98 2 0.5 5.444360894045929 0.0386969249147416 8.097011513114927 0 0 0
391 98 3 0 5.154272360720843 0.25003735624000767 8.489940965823719 0 0 0
392 98 4 -0.5 5.137545990069655 0.24988618195522264 8.517049504284635 0 0 0
405 102 1 0 7.965090626365867 2.555593497702916 8.168349934043114 0 0 0
406 102 2 0.5 7.99064202650078 2.5479270021176417 8.139736109604348 0 0 0
407 102 3 0 7.542446054959399 2.7103397817743433 8.386099694195792 0 0 0
408 102 4 -0.5 7.51930011521088 2.7167307750214276 8.410175573671399 0 0 0
289 73 1 0 2.808400348734732 5.6373796082748875 5.670087767666083 0 0 0
290 73 2 0.5 2.8144471536345455 5.6162810962101775 5.6445907117041045 0 0 0
305 77 1 0 -0.08824703345609099 7.908099319056074 5.6589351831344725 0 0 0
306 77 2 0.5 -0.07951935922008375 7.878313443934636 5.637398847221987 0 0 0
291 73 3 0 2.7225582969836286 5.962851084444341 6.039769539171595 0 0 0
292 73 4 -0.5 2.712350282298221 5.988457582963807 6.0642424310585845 0 0 0
417 105 1 0 0.26475124703713604 5.307448807320721 8.31445832348039 0 0 0
418 105 2 0.5 0.27124215563319115 5.287788528921444 8.302318911336044 0 0 0
419 105 3 0 0.1181312743552593 5.720365252359064 8.555274298074732 0 0 0
420 105 4 -0.5 0.11859474601105893 5.752397583946779 8.572859256223316 0 0 0
307 77 3 0 -0.1321387497029944 8.279004944361347 5.991327144266846 0 0 0
308 77 4 -0.5 -0.13641013186592021 8.303922291624584 6.0118688420716815 0 0 0
433 109 1 0 2.9333339124528806 7.729423563067553 8.245554698175384 0 0 0
434 109 2 0.5 2.931724637429473 7.690173575766637 8.220814804271289 0 0 0
435 109 3 0 3.083009449111981 8.188570286032757 8.375158394614507 0 0 0
436 109 4 -0.5 3.081760678631619 8.223232009425482 8.391470019814154 0 0 0
293 74 1 0 8.020045882116447 5.250353597929104 5.638066628150688 0 0 0
294 74 2 0.5 8.0353989673835 5.238143973294231 5.606141968835963 0 0 0
309 78 1 0 5.421289859098934 8.141092926907897 5.461112503713983 0 0 0
310 78 2 0.5 5.411377040432461 8.112371018783989 5.436919649023631 0 0 0
311 78 3 0 5.478501623047367 8.60150228933948 5.647540910343812 0 0 0
312 78 4 -0.5 5.492105726811568 8.627781606850386 5.661681184151241 0 0 0
421 106 1 0 5.523407612739204 5.161484711708011 8.01043981669642 0 0 0
422 106 2 0.5 5.551073540497107 5.144840864278802 7.989710667210413 0 0 0
423 106 3 0 5.138982363268746 5.3871667604688795 8.236948341766425 0 0 0
424 106 4 -0.5 5.106350485274068 5.397523366601115 8.256495757111315 0 0 0
295 74 3 0 7.826907959240003 5.224976265712132 6.09857535310311 0 0 0
296 74 4 -0.5 7.8051290239779 5.237040607950562 6.131029870456723 0 0 0
437 110 1 0 8.031352079086341 7.942241073453992 8.182765675761502 0 0 0
438 110 2 0.5 8.052622407777696 7.928536987522717 8.165741613153552 0 0 0
439 110 3 0 7.781191472272378 8.021194052155167 8.608425999647089 0 0 0
440 110 4 -0.5 7.76509082576238 8.035198631481462 8.63788845438216 0 0 0
513 129 1 0 2.9061924250159796 0.23342244520030286 10.477554624736396 0 0 0
514 129 2 0.5 2.9346929600225446 0.22089935550518863 10.446646894959706 0 0 0
515 129 3 0 2.6761575107044004 0.5775869176075408 10.757966865119268 0 0 0
516 129 4 -0.5 2.6475285294674555 0.5890857708692324 10.789420937918372 0 0 0
529 133 1 0 0.43775749932527536 2.5490187552096475 10.767990354165795 0 0 0
530 133 2 0.5 0.4630625436568637 2.5235333741639487 10.744525967650851 0 0 0
531 133 3 0 0.21562809328619523 2.9596217414985095 10.947098412075384 0 0 0
532 133 4 -0.5 0.19961670552345437 2.988231417243484 10.968096215809718 0 0 0
641 161 1 0 0.5086843531938656 0.20748120322213273 13.535402494390492 0 0 0
642 161 2 0.5 0.5051790537375552 0.18839959311260443 13.517857127350764 0 0 0
643 161 3 0 0.6154846361029116 0.4912174968964722 13.932984801261387 0 0 0
644 161 4 -0.5 0.6260521437931403 0.5071943130405419 13.948522189501784 0 0 0
657 165 1 0 2.8645555121913917 2.8522324135087076 13.35030877040663 0 0 0
658 165 2 0.5 2.878129788002579 2.8337413793213253 13.327120932897706 0 0 0
659 165 3 0 2.80627807746591 3.194170448057805 13.710391209358017 0 0 0
660 165 4 -0.5 2.79256445238253 3.214764762974224 13.739279524805763 0 0 0
533 134 1 0 5.473273898461714 2.905409227236984 10.682140058770294 0 0 0
534 134 2 0.5 5.490595581056975 2.898664040158662 10.658462325724159 0 0 0
535 134 3 0 5.144224061521233 3.06783786999126 11.021762141400595 0 0 0
536 134 4 -0.5 5.1260720934937325 3.0869649922298463 11.049703639392147 0 0 0
517 130 1 0 8.262934968430372 0.363049644891349 11.097109942670308 0 0 0
518 130 2 0.5 8.271326361398948 0.34493918792702405 11.070096422718226 0 0 0
519 130 3 0 8.234768653628903 0.6846572182815928 11.478910806893895 0 0 0
520 130 4 -0.5 8.234016305417946 0.7032095188886927 11.509755779690774 0 0 0
647 162 3 0 5.557134005752121 0.8679029523378573 13.676192221941987 0 0 0
648 162 4 -0.5 5.546770577197489 0.8847203300969299 13.695439266069856 0 0 0
645 162 1 0 5.695029115848299 0.4621829559711246 13.418568101944334 0 0 0
646 162 2 0.5 5.688413711173781 0.4441965677442642 13.399151790951269 0 0 0
661 166 1 0 8.245893216846204 2.8715868727213727 13.683616792689566 0 0 0
662 166 2 0.5 8.25341263264044 2.8561603170153855 13.659112300189195 0 0 0
663 166 3 0 8.137306105371959 3.216385068997723 14.029033692346587 0 0 0
664 166 4 -0.5 8.12949766292397 3.229932024295118 14.049419076199714 0 0 0
545 137 1 0 3.1817941771952514 5.314666157408411 10.734438185142922 0 0 0
546 137 2 0.5 3.1993528398877844 5.289898139146759 10.716523067278862 0 0 0
547 137 3 0 2.90805674169881 5.564455880373526 11.070112154480325 0 0 0
548 137 4 -0.5 2.897665717780926 5.591004712333432 11.091156367221698 0 0 0
561 141 1 0 0.30124761486936147 7.852361755091612 10.772545762991333 0 0 0
562 141 2 0.5 0.2969440224027967 7.826481669119504 10.753704258677198 0 0 0
563 141 3 0 0.3528688110833706 8.156888301662816 11.165747167398363 0 0 0
564 141 4 -0.5 0.3635733498134733 8.184481213571537 11.18688109907187 0 0 0
673 169 1 0 0.44791689267460494 5.366896308333869 13.2380644041696 0 0 0
674 169 2 0.5 0.456922297442416 5.345640294851726 13.215500122725663 0 0 0
675 169 3 0 0.26536660422051733 5.721870705725345 13.539122490556311 0 0 0
676 169 4 -0.5 0.2577930188622801 5.747712625760728 13.559958338252322 0 0 0
689 173 1 0 3.129226163871846 7.92376410775898 13.336591341951607 0 0 0
690 173 2 0.5 3.117594603189663 7.9099383095553035 13.316246749227505 0 0 0
691 173 3 0 3.3799492924385257 8.153757785053536 13.702947352865618 0 0 0
692 173 4 -0.5 3.3911090723887085 8.169486181047366 13.717742160988815 0 0 0
549 138 1 0 8.18354964707348 5.20026602534693 10.846988733307501 0 0 0
550 138 2 0.5 8.210668074844 5.187078156660202 10.820654780185079 0 0 0
551 138 3 0 7.802283614955405 5.407788624100974 11.095121277692115 0 0 0
552 138 4 -0.5 7.775195955328205 5.428012012512063 11.118211990037087 0 0 0
567 142 3 0 5.628142383940689 8.193056031218621 10.97860847314098 0 0 0
568 142 4 -0.5 5.623816832726695 8.206875724300573 11.009012479485504 0 0 0
565 142 1 0 5.769938448566043 7.9032734349016955 10.596642875180867 0 0 0
566 142 2 0.5 5.783533245125997 7.884660340908113 10.567144364537713 0 0 0
678 170 2 0.5 5.773746078531028 5.3660519395917206 13.46825590658412 0 0 0
677 170 1 0 5.769284928518059 5.386818457331209 13.497382140304726 0 0 0
679 170 3 0 5.8394561695110925 5.617019734195644 13.935629902085584 0 0 0
680 170 4 -0.5 5.837517437985705 5.6312635782875216 13.960330182699002 0 0 0
693 174 1 0 8.455031447148034 8.193186480962996 13.132640502057331 0 0 0
694 174 2 0.5 8.461328761065289 8.176586612540515 13.109280160811611 0 0 0
695 174 3 0 8.543261292796217 8.383657011846726 13.586412717368749 0 0 0
696 174 4 -0.5 8.547445850137748 8.399588295254993 13.613198676253527 0 0 0
769 193 1 0 2.9069244796194296 0.35762191221057815 16.254587793951305 0 0 0
770 193 2 0.5 2.916917608478763 0.33581865208836903 16.230714965522573 0 0 0
771 193 3 0 2.755772678421504 0.7624414127886738 16.506074915978907 0 0 0
772 193 4 -0.5 2.740160412073151 0.7887348062145475 16.52733805006254 0 0 0
785 197 1 0 0.39235137335551984 2.8845075519407772 15.87812481832348 0 0 0
786 197 2 0.5 0.40010093445736583 2.8602597101071225 15.85839863842636 0 0 0
787 197 3 0 0.19105673234458526 3.247268636163227 16.157190951779246 0 0 0
788 197 4 -0.5 0.1831992992144204 3.273340292314686 16.174086488942496 0 0 0
897 225 1 0 0.3626655452575195 0.2187202405690185 18.52747158706919 0 0 0
898 225 2 0.5 0.35028564253823036 0.2033241944724669 18.491654191031166 0 0 0
899 225 3 0 0.622435086612583 0.3530860497550514 18.93302158881574 0 0 0
900 225 4 -0.5 0.6346492441729836 0.36113105828310493 18.969370407112 0 0 0
913 229 1 0 2.903699848183914 2.931674572109709 18.652302602763825 0 0 0
914 229 2 0.5 2.9015764615913326 2.9094770717847553 18.622649294531428 0 0 0
915 229 3 0 3.064132082294433 3.2269990277965537 19.022484403202775 0 0 0
916 229 4 -0.5 3.0670109172482616 3.245010776001255 19.04289252633217 0 0 0
901 226 1 0 5.531058731635937 0.2981693698049857 18.66710472152269 0 0 0
902 226 2 0.5 5.520531359418642 0.28467400278981 18.651710396653037 0 0 0
903 226 3 0 5.814861531682549 0.623769958189394 18.918977955895155 0 0 0
904 226 4 -0.5 5.839022398564879 0.6362455715248161 18.938668913855786 0 0 0
789 198 1 0 5.467296558437102 2.690297590209317 15.933511574954487 0 0 0
790 198 2 0.5 5.464928432477595 2.6812407943803205 15.90610163049932 0 0 0
791 198 3 0 5.484644833089616 2.7190438015573406 16.432372454890658 0 0 0
792 198 4 -0.5 5.486432278793918 2.721730783924099 16.456813784784554 0 0 0
773 194 1 0 8.16520823507771 0.06715795426551321 16.155928210853606 0 0 0
774 194 2 0.5 8.155496198710123 0.04705763046594889 16.133639685863766 0 0 0
775 194 3 0 8.347599325223122 0.4338156946760851 16.442816013217467 0 0 0
776 194 4 -0.5 8.366677507832307 0.44957445030183135 16.46806682457182 0 0 0
917 230 1 0 8.334946503961836 2.628114182962976 18.504959558063902 0 0 0
918 230 2 0.5 8.309302303870618 2.6105298366023835 18.473199603946117 0 0 0
919 230 3 0 8.49239682766795 2.9896033091919763 18.812401548696783 0 0 0
920 230 4 -0.5 8.52096900843957 3.0002537527012776 18.839773720466198 0 0 0
801 201 1 0 3.1182472992195103 5.368103440168368 16.04686622647101 0 0 0
802 201 2 0.5 3.1030377217901663 5.358283048946152 16.026610111147036 0 0 0
803 201 3 0 3.490248824284761 5.411617169453781 16.378056082295302 0 0 0
804 201 4 -0.5 3.5106014769835565 5.419878871622572 16.399795508632224 0 0 0
929 233 1 0 0.5763242269848063 5.317579619632602 18.66783697972698 0 0 0
930 233 2 0.5 0.559762145054038 5.302473561374456 18.643551219472254 0 0 0
931 233 3 0 0.9015476624034087 5.45675921148214 19.02119297623513 0 0 0
932 233 4 -0.5 0.9204115161502268 5.488357687069628 19.044371805357123 0 0 0
817 205 1 0 0.4024231406755331 7.903554089956164 15.948010131890214 0 0 0
818 205 2 0.5 0.38209958462926547 7.890221314859096 15.92272880819554 0 0 0
819 205 3 0 0.8000123027063656 8.064664140335998 16.20487106460897 0 0 0
820 205 4 -0.5 0.818732729086418 8.072487462635621 16.22728969843002 0 0 0
945 237 1 0 3.0565602477374063 7.764868499203318 18.777066763343207 0 0 0
946 237 2 0.5 3.0427308380520444 7.742050676255983 18.754652705063663 0 0 0
947 237 3 0 3.3402704614254213 8.071455742061646 19.05185492306512 0 0 0
948 237 4 -0.5 3.352107209537315 8.092226049915402 19.070851751993423 0 0 0
933 234 1 0 5.554653096009736 5.121629031088912 18.516455248545558 0 0 0
934 234 2 0.5 5.542809614608148 5.105795512891278 18.478996457485263 0 0 0
935 234 3 0 5.7332728188703825 5.2655443230971635 18.960695753162696 0 0 0
936 234 4 -0.5 5.748915992271981 5.276256034637979 18.992685490380854 0 0 0
805 202 1 0 8.245210491749749 5.465430523293171 15.974521365251231 0 0 0
806 202 2 0.5 8.236928301104713 5.448008907301499 15.932144341447835 0 0 0
807 202 3 0 8.436142503562417 5.512794559487817 16.434203603223377 0 0 0
808 202 4 -0.5 8.450495231216893 5.5272790220505685 16.470120000117202 0 0 0
821 206 1 0 5.528388843046126 7.838819096414219 15.9111427728764 0 0 0
822 206 2 0.5 5.507493740527495 7.812323936998881 15.879303649540802 0 0 0
823 206 3 0 5.718760186528193 8.016583853444297 16.33792596092888 0 0 0
824 206 4 -0.5 5.730503819797658 8.037579313585711 16.367779794659153 0 0 0
949 238 1 0 7.966302835985225 7.985557205032271 18.58889706595091 0 0 0
950 238 2 0.5 7.9544834179828605 7.977039430681518 18.567771540373492 0 0 0
951 238 3 0 8.08801131117165 8.019865593829413 19.072644915217175 0 0 0
952 238 4 -0.5 8.106741904585519 8.030316685198997 19.102015051448845 0 0 0
65 17 1 0 2.9632695503568742 10.645316442230182 0.084477702612489 0 0 0
66 17 2 0.5 2.939983552425225 10.632581274950905 0.06507564825360289 0 0 0
67 17 3 0 3.335012633954683 10.965807680682271 0.17960502490790634 0 0 0
68 17 4 -0.5 3.3598567035094655 10.976790179156342 0.19809748320563308 0 0 0
193 49 1 0 0.30617729381095327 10.31556031025706 2.9025735823159864 0 0 0
194 49 2 0.5 0.2926697734602281 10.291922109028862 2.885188160091687 0 0 0
195 49 3 0 0.4867750716658894 10.759883699650494 3.0439487396152263 0 0 0
196 49 4 -0.5 0.5027077659802346 10.788724563195945 3.057811535842239 0 0 0
209 53 1 0 2.6971254524621187 13.239312027616766 2.9450271911324117 0 0 0
210 53 2 0.5 2.6814054063086608 13.224279580302717 2.9195317719142646 0 0 0
82 21 2 0.5 0.3667730488987864 13.056774198833326 0.36275251857587354 0 0 0
81 21 1 0 0.38153974064481466 13.075157326383687 0.37752732287615953 0 0 0
83 21 3 0 0.8297536865062909 13.195097669774341 0.5639048838799506 0 0 0
84 21 4 -0.5 0.850935268458754 13.214041639071798 0.5811678903217015 0 0 0
211 53 3 0 2.929102034022967 13.45688043505203 3.3308327477704 0 0 0
212 53 4 -0.5 2.9441894523388656 13.4679209570859 3.358904434172416 0 0 0
197 50 1 0 5.325997212946628 10.774628892597898 2.8890691084485103 0 0 0
198 50 2 0.5 5.3149121878542145 10.75992847398973 2.881391824058816 0 0 0
199 50 3 0 5.481460852372995 11.130797955876428 3.2036643191315513 0 0 0
200 50 4 -0.5 5.492677098565597 11.153536940837796 3.220183429307321 0 0 0
69 18 1 0 8.04927538198582 10.914433754806096 0.4647358207329409 0 0 0
70 18 2 0.5 8.033059089698778 10.908191772382581 0.4407747112764897 0 0 0
71 18 3 0 8.486140749674574 10.987516991492551 0.696681305682297 0 0 0
72 18 4 -0.5 8.508992457029827 10.991874069476511 0.72578107655968 0 0 0
85 22 1 0 5.505619644698505 13.406917521107712 0.5234247074897768 0 0 0
86 22 2 0.5 5.478823647472269 13.3854002236691 0.49648894733589427 0 0 0
87 22 3 0 5.813510216230763 13.63778677489033 0.8426315862275531 0 0 0
88 22 4 -0.5 5.825044103337094 13.658039730529904 0.8642414960168505 0 0 0
213 54 1 0 7.990804107616625 13.377860061313719 3.0157086221452554 0 0 0
214 54 2 0.5 7.974644330711439 13.365845789751964 2.993910034938483 0 0 0
215 54 3 0 8.355076021176558 13.560581946886622 3.305395003341801 0 0 0
216 54 4 -0.5 8.372991674654797 13.57439778894428 3.325667151531114 0 0 0
97 25 1 0 2.6336601082582765 15.948947876735351 0.40501882323707517 0 0 0
98 25 2 0.5 2.616395917377495 15.939614033814722 0.37768556953889754 0 0 0
99 25 3 0 2.8358828265660443 16.025247533663844 0.8558662405419176 0 0 0
100 25 4 -0.5 2.8595253389659616 16.03779978929748 0.8861075127029476 0 0 0
113 29 1 0 0.14413188560258247 18.56695496621275 0.3091615931942568 0 0 0
114 29 2 0.5 0.1155640488616688 18.55775049957512 0.2817728189244689 0 0 0
115 29 3 0 0.47737135122180535 18.67630441668058 0.6655491012833273 0 0 0
116 29 4 -0.5 0.5095168124108915 18.688370230930875 0.6963122996920389 0 0 0
225 57 1 0 0.04420660901879238 15.69100967230084 2.954767527945034 0 0 0
226 57 2 0.5 0.03550827682063466 15.684643970115173 2.929366677573701 0 0 0
227 57 3 0 0.23324221626849123 15.770027839654754 3.4108502702650796 0 0 0
228 57 4 -0.5 0.239591795876113 15.781544195482587 3.4373776261725686 0 0 0
241 61 1 0 2.4653463944007665 18.49199640401446 3.0693185429775096 0 0 0
242 61 2 0.5 2.454407383854988 18.4880158915945 3.0430947584891497 0 0 0
243 61 3 0 2.648376625883343 18.544921827853997 3.531570867453811 0 0 0
244 61 4 -0.5 2.6532268394969956 18.547196399927273 3.551105502106861 0 0 0
117 30 1 0 5.557204317174035 18.388238565247132 0.23077314612919417 0 0 0
118 30 2 0.5 5.54553536350804 18.376227928061827 0.19161764605715942 0 0 0
119 30 3 0 5.807110167989231 18.551190406032976 0.632009679058793 0 0 0
120 30 4 -0.5 5.816896005272849 18.571604167876835 0.6681852383943976 0 0 0
229 58 1 0 5.032948018532926 15.992865925871733 2.846380650589774 0 0 0
230 58 2 0.5 5.023105969604196 15.973137261345762 2.824070947590438 0 0 0
231 58 3 0 5.305679589015434 16.218921871065625 3.1992304765140447 0 0 0
232 58 4 -0.5 5.31686184774191 16.231523715268835 3.224045485116182 0 0 0
101 26 1 0 8.02465348988353 15.746242931867789 0.35983480259090467 0 0 0
102 26 2 0.5 8.002384289737854 15.720110815815719 0.33424249825872765 0 0 0
103 26 3 0 8.364002189741509 15.980735504660803 0.6423462514163187 0 0 0
104 26 4 -0.5 8.383494734775727 15.99620536011401 0.6615234106106304 0 0 0
245 62 1 0 7.821640058069687 18.310541181058205 2.97418426811678 0 0 0
246 62 2 0.5 7.8156821775339615 18.289620934557753 2.9507133273238018 0 0 0
247 62 3 0 7.8732857230927396 18.484441465714056 3.440086991435384 0 0 0
248 62 4 -0.5 7.881096584634971 18.504373668051706 3.460525919886339 0 0 0
321 81 1 0 2.772781041019961 10.478464035827708 5.874146619275322 0 0 0
322 81 2 0.5 2.777846347445137 10.459982975452483 5.856218840619678 0 0 0
337 85 1 0 0.02033563245969876 13.097928129244751 5.605320489641781 0 0 0
338 85 2 0.5 0.014250656286017007 13.099129952247889 5.573499977999362 0 0 0
323 81 3 0 2.8143561241861335 10.881644268227518 6.166884328689757 0 0 0
324 81 4 -0.5 2.80917102936754 10.90815480326726 6.187857298297777 0 0 0
449 113 1 0 -0.09740903956707905 10.508316423743176 8.058462356481783 0 0 0
450 113 2 0.5 -0.09099036205939036 10.498328706376677 8.012718557015432 0 0 0
451 113 3 0 -0.3436655114141341 10.670150294122426 8.462398453659107 0 0 0
452 113 4 -0.5 -0.35621360646619693 10.678647807815748 8.500852903236304 0 0 0
339 85 3 0 0.08146575784718313 13.071748633171628 6.100866863604246 0 0 0
340 85 4 -0.5 0.08159648837346314 13.067121787002305 6.133221824182114 0 0 0
465 117 1 0 2.671444006929844 13.409247804405931 8.188548185328147 0 0 0
466 117 2 0.5 2.6604098424585274 13.399837889954997 8.152524204940919 0 0 0
467 117 3 0 2.9470172655085025 13.528164893177067 8.588435577257227 0 0 0
468 117 4 -0.5 2.9521196066384454 13.534059057269594 8.612990456093044 0 0 0
325 82 1 0 8.00020154461754 10.656404131600096 5.6074209315813635 0 0 0
326 82 2 0.5 7.984054772462143 10.630602223216187 5.599817828656941 0 0 0
327 82 3 0 8.238746967295041 11.06754358097619 5.762494032837793 0 0 0
328 82 4 -0.5 8.266379863302381 11.092024250565096 5.775146170213172 0 0 0
341 86 1 0 5.263748748139665 13.115108715429828 5.521025112982174 0 0 0
342 86 2 0.5 5.245541286543962 13.094868641813006 5.49832037533643 0 0 0
343 86 3 0 5.574773665138638 13.258315170465403 5.885407323897857 0 0 0
344 86 4 -0.5 5.589290837891899 13.272546365506477 5.903604126800229 0 0 0
453 114 1 0 5.636222082391601 10.617083201580366 8.193197011752044 0 0 0
454 114 2 0.5 5.615843304206784 10.606419333906459 8.171848462665931 0 0 0
455 114 3 0 6.032307501168881 10.822076187055579 8.419244653769136 0 0 0
456 114 4 -0.5 6.0628137280025705 10.828042843322336 8.44419940040489 0 0 0
469 118 1 0 8.107307865386385 13.382448809275022 8.125809753298025 0 0 0
470 118 2 0.5 8.09224053826228 13.3581935342787 8.098877107116596 0 0 0
471 118 3 0 8.111663860569555 13.815761280623082 8.375225290869583 0 0 0
472 118 4 -0.5 8.129032882616622 13.838994352365058 8.397355157472896 0 0 0
353 89 1 0 2.3935281082537854 15.98485884652903 5.607476547975126 0 0 0
354 89 2 0.5 2.3905310188517666 15.982294323776621 5.5757829641804415 0 0 0
369 93 1 0 -0.14380333998113048 18.415830999082992 5.582860928789309 0 0 0
370 93 2 0.5 -0.12845866103847234 18.41801200397463 5.547915311813012 0 0 0
371 93 3 0 -0.27083539251865946 18.327384383237284 6.058274375860679 0 0 0
372 93 4 -0.5 -0.2852318925869901 18.325516798165285 6.089094320122142 0 0 0
355 89 3 0 2.309325148809582 15.909216949909588 6.094487483625803 0 0 0
356 89 4 -0.5 2.3028985174632544 15.921234125237092 6.132170148654458 0 0 0
481 121 1 0 0.05133736829203157 15.62942700070177 8.145884548512713 0 0 0
482 121 2 0.5 0.06872836142407139 15.63455818310407 8.117057256727875 0 0 0
483 121 3 0 -0.12119549212703981 15.380074190708756 8.54343294150031 0 0 0
484 121 4 -0.5 -0.1358392104304215 15.370177600808981 8.568367708463034 0 0 0
497 125 1 0 2.5575108588636795 18.124173206704057 8.392901267791117 0 0 0
498 125 2 0.5 2.577066397680014 18.106056126977546 8.364051816083538 0 0 0
499 125 3 0 2.3849323745757784 18.406711229126334 8.76757620623437 0 0 0
500 125 4 -0.5 2.363495793573505 18.419998247161082 8.792947032688517 0 0 0
373 94 1 0 5.113524472557735 18.386664340944094 5.581504891836143 0 0 0
374 94 2 0.5 5.125093666978091 18.36939257334862 5.552550393516293 0 0 0
357 90 1 0 7.537739033819221 15.796838320799695 5.608484776562177 0 0 0
358 90 2 0.5 7.53873279355819 15.780315968202697 5.584514018080108 0 0 0
359 90 3 0 7.471710623861336 16.070048487735683 6.021994097284393 0 0 0
375 94 3 0 5.026776950160382 18.52297275226346 6.054682268373531 0 0 0
376 94 4 -0.5 5.016700061844082 18.539794089488815 6.079093483951584 0 0 0
485 122 1 0 5.18640675136427 15.780117921955961 8.179568516777248 0 0 0
486 122 2 0.5 5.197596511670279 15.758179115445376 8.150635267486637 0 0 0
487 122 3 0 4.896463183882969 16.02962611238313 8.501550334954267 0 0 0
488 122 4 -0.5 4.873053965954798 16.051866513555726 8.53436352538942 0 0 0
360 90 4 -0.5 7.471284969885958 16.084004621634175 6.0411410994160155 0 0 0
501 126 1 0 7.8040754016236065 18.341316091261504 8.280589470843443 0 0 0
502 126 2 0.5 7.82702376274174 18.330296055989173 8.25705795419814 0 0 0
503 126 3 0 7.531346242601337 18.429385188651214 8.690299962724968 0 0 0
504 126 4 -0.5 7.510495072638495 18.443414954581936 8.725705356898127 0 0 0
577 145 1 0 2.9761039543283365 10.501824843140552 10.403809766635629 0 0 0
578 145 2 0.5 2.981523506405195 10.476926788809466 10.382058030523899 0 0 0
579 145 3 0 3.1676074091651842 10.924525444668834 10.589869480308955 0 0 0
580 145 4 -0.5 3.16793290617417 10.944101246992746 10.612482884739109 0 0 0
593 149 1 0 0.44075160896268034 13.004238320129563 10.857090577107973 0 0 0
594 149 2 0.5 0.44583015061869863 13.005133433966867 10.8299690207185 0 0 0
595 149 3 0 0.3582101608359924 13.0548651141692 11.347648743978356 0 0 0
596 149 4 -0.5 0.3576465364039251 13.058611197149856 11.37406992033133 0 0 0
705 177 1 0 0.741778053552209 10.548878269063906 13.427331172999574 0 0 0
706 177 2 0.5 0.7293926273812349 10.535235601191914 13.407686707031987 0 0 0
707 177 3 0 0.9170619297249168 10.747579929167099 13.851326462797699 0 0 0
708 177 4 -0.5 0.9382156101025503 10.75888423699137 13.871060568056096 0 0 0
721 181 1 0 2.9559922771410068 13.338346572109323 13.49784050872484 0 0 0
722 181 2 0.5 2.944477875544778 13.321647874104077 13.485390321458139 0 0 0
723 181 3 0 3.1552631023142013 13.697239185921763 13.78324747065876 0 0 0
724 181 4 -0.5 3.164719135263798 13.716690952489985 13.804918821667204 0 0 0