LAMMPS datafile

512 atoms
2 atom types
256 bonds
1 bond types
0 angles
0 angle types

-0.24244354520785186 21.731381042514464  xlo xhi
-0.04503651071552749 21.533974008038182  ylo yhi
-0.11424614242054622 21.603183639600267  zlo zhi

Masses

1 19.974
2 19.974

Atoms

1 1 1 0.0 3.64074705 1.01695897 1.23883014
2 1 2 0.0 3.82368466 0.55598026 1.30234456
3 2 1 0.0 8.88255755 1.23378937 1.31308954
4 2 2 0.0 9.18541945 1.46905389 0.99226276
5 3 1 0.0 14.47663985 1.31039797 1.50931778
6 3 2 0.0 14.19764822 1.72071969 1.57096585
7 4 1 0.0 19.88829362 1.05041086 0.99880428
8 4 2 0.0 20.18477964 1.45299149 1.00382853
9 5 1 0.0 0.89479146 3.17434675 1.43132258
10 5 2 0.0 0.50865775 2.88632197 1.56527167
11 6 1 0.0 6.15419641 3.84590119 0.97219742
12 6 2 0.0 5.72322143 3.67952804 0.78093724
13 7 1 0.0 11.66158151 3.83881002 1.22438701
14 7 2 0.0 11.56978343 4.22497801 0.92032585
15 8 1 0.0 17.21660508 3.63728464 1.13365843
16 8 2 0.0 16.80169661 3.91626739 1.13793124
17 9 1 0.0 3.31830304 6.47191546 1.44488054
18 9 2 0.0 3.25800869 6.25009226 1.88891802
19 10 1 0.0 8.71699072 6.40959771 1.12621938
20 10 2 0.0 8.9156133 5.95151292 1.15284212
21 11 1 0.0 14.73698418 6.49361394 0.9636761
22 11 2 0.0 14.5666796 6.46207545 0.49462137
23 12 1 0.0 20.17480195 6.04706499 1.16003948
24 12 2 0.0 20.02950922 6.04883469 0.68160654
25 13 1 0.0 1.11878834 9.46046879 1.3969746
26 13 2 0.0 1.40450959 9.85876662 1.2983688
27 14 1 0.0 6.28874209 9.20206395 1.32769738
28 14 2 0.0 6.49387558 8.74679554 1.30215834
29 15 1 0.0 11.92497247 9.03242263 1.38001737
30 15 2 0.0 11.95033702 8.6675498 1.03909011
31 16 1 0.0 17.40834673 8.9459779 1.21782434
32 16 2 0.0 17.7121743 9.34108546 1.25756301
33 17 1 0.0 3.68488007 11.94550551 1.8368645
34 17 2 0.0 4.1848682 11.9435205 1.83910959
35 18 1 0.0 9.00124899 11.72612858 1.38357487
36 18 2 0.0 9.23839522 11.29850872 1.27915086
37 19 1 0.0 14.7064293 11.88337651 1.08685442
38 19 2 0.0 14.57152963 11.9895108 0.61722852
39 20 1 0.0 20.08259574 11.88445384 1.28515573
40 20 2 0.0 20.09186606 12.36190561 1.43333436
41 21 1 0.0 0.76747384 14.23665469 1.15850072
42 21 2 0.0 0.99288141 14.67257469 1.25424346
43 22 1 0.0 6.23653262 14.71501959 1.15831239
44 22 2 0.0 5.80324927 14.87562803 1.34928447
45 23 1 0.0 12.07276757 14.50959563 1.2042271
46 23 2 0.0 11.99197037 14.72571309 0.76063357
47 24 1 0.0 17.29443881 14.47840376 1.24014696
48 24 2 0.0 17.16840298 14.91531181 1.03222888
49 25 1 0.0 3.29701377 17.2589387 0.95600266
50 25 2 0.0 2.9782628 17.58536032 1.1605719
51 26 1 0.0 8.78867863 17.44006869 1.0828029
52 26 2 0.0 9.01590541 17.83132076 0.86998188
53 27 1 0.0 14.82440462 17.41915062 1.18645563
54 27 2 0.0 15.28696399 17.23594863 1.23619291
55 28 1 0.0 20.07146654 17.15440019 1.37596942
56 28 2 0.0 20.27985698 17.50896798 1.091611
57 29 1 0.0 0.59234578 20.04783776 1.24803277
58 29 2 0.0 0.36723839 20.45996834 1.41972257
59 30 1 0.0 6.26463847 19.98400012 1.23933414
60 30 2 0.0 6.47388727 20.22133918 1.62649376
61 31 1 0.0 12.09212112 20.06607662 1.2334262
62 31 2 0.0 12.2203785 20.53597814 1.12053273
63 32 1 0.0 17.62092081 20.00969982 1.29619769
64 32 2 0.0 17.82566245 19.57583908 1.43708003
65 33 1 0.0 1.01701998 0.68867795 4.2112252
66 33 2 0.0 1.44431438 0.46807922 4.07427654
67 34 1 0.0 6.59251567 1.01259391 4.14532253
68 34 2 0.0 6.59835238 0.71385234 4.54623174
69 35 1 0.0 12.01236696 1.07089477 4.06075246
70 35 2 0.0 12.42761606 1.33082285 3.96072915
71 36 1 0.0 16.95988363 0.80688898 3.92580194
72 36 2 0.0 16.55030063 0.68722525 4.18642414
73 37 1 0.0 3.71175422 3.7493441 3.72069669
74 37 2 0.0 4.00208177 3.90660896 3.34521838
75 38 1 0.0 9.01000032 3.80299319 3.93101398
76 38 2 0.0 9.00764302 4.30038036 3.98203051
77 39 1 0.0 14.51341099 3.97069588 3.96259536
78 39 2 0.0 14.84992093 3.76702001 4.27127158
79 40 1 0.0 19.95360975 3.17488535 3.93878311
80 40 2 0.0 19.88430402 2.70553342 4.09660752
81 41 1 0.0 0.84825238 6.55906914 3.98566252
82 41 2 0.0 0.96085448 6.51389998 4.47073173
83 42 1 0.0 6.11880984 6.57218871 3.87341305
84 42 2 0.0 6.06343975 6.75082651 3.40969581
85 43 1 0.0 11.80401046 6.14040111 3.87469181
86 43 2 0.0 12.19757612 6.22683362 3.57865441
87 44 1 0.0 17.35758646 6.44908386 3.69588196
88 44 2 0.0 17.05879855 6.70134212 4.00748413
89 45 1 0.0 3.88230506 9.28024678 4.29392601
90 45 2 0.0 3.71538997 9.31231723 4.76416167
91 46 1 0.0 9.28281759 9.20610092 3.9885839
92 46 2 0.0 9.10654646 9.59953897 4.241841
93 47 1 0.0 14.86995932 8.77753258 3.93401598
94 47 2 0.0 14.5372814 9.0256529 3.65515249
95 48 1 0.0 20.14206119 9.07839044 3.6382174
96 48 2 0.0 20.17929408 8.58462045 3.56888334
97 49 1 0.0 0.62935822 11.98672894 4.2114738
98 49 2 0.0 0.48778931 11.96465985 3.73243055
99 50 1 0.0 6.29122215 11.98624259 4.1844928
100 50 2 0.0 5.90026163 12.28081122 4.28636865
101 51 1 0.0 11.81655608 11.6367147 3.98422286
102 51 2 0.0 11.91012772 11.39745407 4.41318473
103 52 1 0.0 17.41184364 11.88491017 3.62779483
104 52 2 0.0 17.46157136 11.43087581 3.42436488
105 53 1 0.0 3.47915311 14.85699179 3.82233775
106 53 2 0.0 3.19590005 15.10662841 4.15013988
107 54 1 0.0 9.02595442 14.76516353 3.45863088
108 54 2 0.0 8.60220995 14.50054831 3.47907476
109 55 1 0.0 14.77478443 14.60746354 3.7006949
110 55 2 0.0 14.80234121 14.59272299 4.19972975
111 56 1 0.0 19.99035535 14.59619627 4.45887399
112 56 2 0.0 19.80337424 14.42816952 4.02665387
113 57 1 0.0 0.60063245 17.43174926 4.00431044
114 57 2 0.0 1.00738458 17.7220001 3.9868185
115 58 1 0.0 6.10768489 17.3252949 3.96154491
116 58 2 0.0 6.44859431 16.95971574 3.97305336
117 59 1 0.0 12.05417022 17.16869464 3.61511654
118 59 2 0.0 12.17650548 16.75154707 3.3680814
119 60 1 0.0 17.30399548 17.11800966 4.06195862
120 60 2 0.0 17.04947988 17.25274178 3.6532083
121 61 1 0.0 3.36742018 19.87128526 3.68293577
122 61 2 0.0 3.55991294 19.42782466 3.55529841
123 62 1 0.0 9.12346021 19.79325067 3.95503073
124 62 2 0.0 9.43856985 19.41772241 4.05344301
125 63 1 0.0 14.42280018 19.90704235 3.73941669
126 63 2 0.0 14.21556617 19.89863294 4.19438173
127 64 1 0.0 20.09466558 19.96288797 4.28897698
128 64 2 0.0 19.66000726 19.80889091 4.09569757
129 65 1 0.0 3.62998601 0.86048964 6.45934248
130 65 2 0.0 3.83093345 0.73905479 6.90079814
131 66 1 0.0 9.31195373 0.92116511 6.84098724
132 66 2 0.0 9.12734353 0.58069589 6.52475098
133 67 1 0.0 14.43735935 1.18936953 6.79963879
134 67 2 0.0 14.74934012 1.55238755 6.65511555
135 68 1 0.0 20.12525657 0.70443022 6.97020952
136 68 2 0.0 20.56480832 0.55618224 7.1568013
137 69 1 0.0 0.83732504 3.55286399 6.38401375
138 69 2 0.0 0.82750928 3.05726672 6.31852097
139 70 1 0.0 6.05099198 3.64192374 6.50637494
140 70 2 0.0 6.34362774 3.55628674 6.11009533
141 71 1 0.0 11.88189529 3.68311232 6.49340017
142 71 2 0.0 11.60301492 3.97716254 6.20054468
143 72 1 0.0 17.7542884 3.49713504 6.86651734
144 72 2 0.0 17.74945375 3.01739963 6.7256858
145 73 1 0.0 3.53064997 6.18335286 6.58669571
146 73 2 0.0 3.86433889 5.92036231 6.85030612
147 74 1 0.0 9.25354591 6.31114541 6.87937677
148 74 2 0.0 8.78733315 6.16566097 6.98651302
149 75 1 0.0 14.58518681 6.55389735 6.60445746
150 75 2 0.0 15.01185371 6.29410438 6.58297567
151 76 1 0.0 19.92856622 6.40583763 6.68453745
152 76 2 0.0 19.46717543 6.35369812 6.49906699
153 77 1 0.0 0.63253718 9.30754247 6.48697815
154 77 2 0.0 0.98432867 9.59632382 6.69397936
155 78 1 0.0 6.44993484 8.77286568 6.81711839
156 78 2 0.0 6.67993758 9.15382941 7.04508462
157 79 1 0.0 11.8892423 9.2556456 6.71893204
158 79 2 0.0 12.33497581 9.11893279 6.89957183
159 80 1 0.0 17.27987501 9.01320015 6.74062187
160 80 2 0.0 17.63995571 9.05418468 7.08510207
161 81 1 0.0 3.93767222 11.91526971 6.72535459
162 81 2 0.0 3.54013112 12.13623055 6.51765739
163 82 1 0.0 9.16184555 11.91816653 6.56257691
164 82 2 0.0 9.26019016 11.65908929 6.9787697
165 83 1 0.0 14.73249669 11.71824644 6.45587385
166 83 2 0.0 15.16995779 11.47613986 6.452637
167 84 1 0.0 19.96100289 11.7165993 6.72990143
168 84 2 0.0 19.62024966 11.82647208 6.38087414
169 85 1 0.0 0.85901807 14.46536902 6.91535073
170 85 2 0.0 0.51170858 14.7986623 6.78010215
171 86 1 0.0 6.64927725 14.60553806 6.46413809
172 86 2 0.0 6.54077916 15.01706974 6.72657776
173 87 1 0.0 11.80143785 14.35627038 6.44232042
174 87 2 0.0 11.61006451 14.81718283 6.47293728
175 88 1 0.0 17.49954858 14.57002738 7.03602646
176 88 2 0.0 17.44290876 14.57615396 7.53278263
177 89 1 0.0 3.51971448 17.08873835 6.5823344
178 89 2 0.0 3.50051539 16.77426551 6.19407341
179 90 1 0.0 9.5111451 17.12181863 6.62260911
180 90 2 0.0 9.58028632 17.23680057 7.10428358
181 91 1 0.0 14.74084646 17.50557105 6.70666417
182 91 2 0.0 14.42052747 17.41671084 6.33315988
183 92 1 0.0 20.25814148 17.20564652 6.76326109
184 92 2 0.0 20.40435149 16.72754342 6.75679905
185 93 1 0.0 1.13570875 19.65601721 7.06394142
186 93 2 0.0 1.53103241 19.83503914 7.3122797
187 94 1 0.0 6.24629238 19.64490282 6.73430028
188 94 2 0.0 6.47698696 19.47945173 6.32270092
189 95 1 0.0 11.79431925 19.95554218 6.9072567
190 95 2 0.0 12.01402283 19.64625724 6.58155941
191 96 1 0.0 17.28390068 19.90975093 6.71766116
192 96 2 0.0 17.46464291 20.21210909 7.07251111
193 97 1 0.0 1.26909708 1.26038 9.29544917
194 97 2 0.0 1.54428495 1.57631734 9.02257753
195 98 1 0.0 6.46607086 1.13510371 9.06504203
196 98 2 0.0 6.14829954 1.0098377 9.43019328
197 99 1 0.0 12.20144948 0.91661608 9.59363859
198 99 2 0.0 12.57608162 1.07351891 9.3020308
199 100 1 0.0 17.44165254 0.68965776 9.38103368
200 100 2 0.0 17.3112594 0.21688909 9.28361915
201 101 1 0.0 3.76470761 3.99697175 9.40660136
202 101 2 0.0 3.70536702 4.48904936 9.34071836
203 102 1 0.0 9.18707317 3.69792578 9.51505952
204 102 2 0.0 9.04062409 4.12396959 9.29816555
205 103 1 0.0 14.39519659 4.16879505 9.3331687
206 103 2 0.0 14.29763456 4.6441182 9.21253661
207 104 1 0.0 20.43019387 3.5881736 9.0260612
208 104 2 0.0 20.13594456 3.88377035 8.75030143
209 105 1 0.0 1.18626821 6.80763629 9.38826699
210 105 2 0.0 1.17391944 6.60161511 8.93284026
211 106 1 0.0 6.76651061 6.6161451 9.5444056
212 106 2 0.0 7.05417527 6.5005473 9.15211357
213 107 1 0.0 12.02355536 6.61973666 9.15513232
214 107 2 0.0 11.9856725 6.65404444 8.65773889
215 108 1 0.0 17.53916529 6.21873578 9.54736667
216 108 2 0.0 17.86753772 6.11178988 9.18578749
217 109 1 0.0 3.68250868 9.2079094 9.39679314
218 109 2 0.0 3.34293103 9.56625294 9.31756561
219 110 1 0.0 9.07437267 9.4910127 9.33776569
220 110 2 0.0 9.47892261 9.3788883 9.60937086
221 111 1 0.0 14.58318714 9.14678398 9.20191862
222 111 2 0.0 14.98057212 8.92449172 9.40849075
223 112 1 0.0 19.92081715 9.21373718 9.36513123
224 112 2 0.0 19.48873691 9.38251199 9.55173658
225 113 1 0.0 0.61452974 11.75884933 9.30759373
226 113 2 0.0 0.28048601 12.11058639 9.42882218
227 114 1 0.0 6.22732499 11.86535912 9.22635775
228 114 2 0.0 6.16352692 12.09713279 8.78792784
229 115 1 0.0 11.93369838 11.99815523 9.16849817
230 115 2 0.0 11.69609027 12.43683428 9.20172639
231 116 1 0.0 17.35554124 11.7195983 9.72510234
232 116 2 0.0 17.59784043 11.48930664 10.0969404
233 117 1 0.0 3.53129172 14.71677002 9.14539199
234 117 2 0.0 3.83823939 14.83617845 9.52159787
235 118 1 0.0 8.84314994 14.44282711 9.37936211
236 118 2 0.0 8.88466132 14.66757114 8.93464061
237 119 1 0.0 14.80093692 14.70223081 9.33953767
238 119 2 0.0 14.71757394 14.82968602 9.81579094
239 120 1 0.0 20.05300407 14.60718914 9.2792625
240 120 2 0.0 20.05800245 14.66334302 8.78243847
241 121 1 0.0 1.03653248 17.16009787 9.48448623
242 121 2 0.0 0.68109171 17.50626402 9.42259433
243 122 1 0.0 6.30505375 17.23145098 9.41803185
244 122 2 0.0 6.34629693 16.73915623 9.3409136
245 123 1 0.0 11.98283228 17.2762114 9.97567377
246 123 2 0.0 12.36844599 17.18665716 9.67024765
247 124 1 0.0 17.35502735 17.18787266 9.51470315
248 124 2 0.0 16.87023814 17.13818647 9.62654517
249 125 1 0.0 3.86335521 19.85365717 9.50866619
250 125 2 0.0 4.34292525 19.97720222 9.57756404
251 126 1 0.0 8.98680649 19.9159709 9.56142451
252 126 2 0.0 8.68418308 20.08753242 9.92057818
253 127 1 0.0 14.82833725 19.91370589 9.67690338
254 127 2 0.0 14.46783635 20.15371803 9.42703264
255 128 1 0.0 20.02047775 19.74522417 9.49239783
256 128 2 0.0 20.21184765 19.33432944 9.28133781
257 129 1 0.0 3.26025213 1.30991416 12.38044731
258 129 2 0.0 3.00796974 1.09533331 12.00586044
259 130 1 0.0 9.0878497 1.08162842 12.29066665
260 130 2 0.0 9.11687882 1.09535658 11.79168641
261 131 1 0.0 14.52618993 1.05732188 12.27241857
262 131 2 0.0 14.92769364 1.3359621 12.37802991
263 132 1 0.0 20.05833053 0.84914946 12.29841562
264 132 2 0.0 19.83837297 1.08315936 11.91518556
265 133 1 0.0 0.99086167 4.12447561 11.9579389
266 133 2 0.0 0.98838132 3.6633321 11.76469246
267 134 1 0.0 6.30637553 3.49095475 12.2073304
268 134 2 0.0 6.36263044 3.01593565 12.06174471
269 135 1 0.0 11.97223146 3.70219166 12.10047274
270 135 2 0.0 11.60152561 4.03164353 12.03692612
271 136 1 0.0 17.46760633 3.50683077 11.82569692
272 136 2 0.0 16.98093701 3.40754339 11.88307723
273 137 1 0.0 3.67105507 6.69840482 12.03447211
274 137 2 0.0 3.57422289 6.79011872 12.51636801
275 138 1 0.0 9.40286768 6.58171585 12.06097568
276 138 2 0.0 9.75100875 6.27112308 12.24078382
277 139 1 0.0 14.78453363 6.23622815 12.09170051
278 139 2 0.0 14.59537782 5.78176006 12.00406168
279 140 1 0.0 20.27721733 6.55397915 12.09513373
280 140 2 0.0 20.74956864 6.71642224 12.11736332
281 141 1 0.0 0.81533765 9.15744271 12.02884085
282 141 2 0.0 1.22062639 9.38858579 11.84907966
283 142 1 0.0 6.48883795 9.45819067 12.31691218
284 142 2 0.0 6.07869458 9.17718056 12.26385937
285 143 1 0.0 12.14860929 9.27857668 12.30402448
286 143 2 0.0 12.06143156 9.68369422 12.02422983
287 144 1 0.0 16.96821067 8.89107247 11.77875514
288 144 2 0.0 16.47010063 8.84836119 11.78645438
289 145 1 0.0 3.66937055 11.7525605 12.11555791
290 145 2 0.0 4.16423717 11.70948812 12.05855666
291 146 1 0.0 9.3046542 11.72234382 12.1911231
292 146 2 0.0 9.29423388 11.22418867 12.14946898
293 147 1 0.0 14.76590671 12.05311015 12.44605534
294 147 2 0.0 15.04341082 11.6820901 12.25807224
295 148 1 0.0 20.25636341 11.64766946 12.06315474
296 148 2 0.0 20.65386333 11.35080311 12.12531024
297 149 1 0.0 0.77221216 14.3746731 11.84237958
298 149 2 0.0 0.96530629 14.36928591 11.38119
299 150 1 0.0 6.1911285 14.16716966 12.05464697
300 150 2 0.0 6.58628736 14.13833039 12.35963979
301 151 1 0.0 11.80918829 14.36025965 12.17740194
302 151 2 0.0 11.58022343 14.80153973 12.23077033
303 152 1 0.0 17.2571066 14.54922115 12.28079787
304 152 2 0.0 16.76962852 14.59638481 12.38148796
305 153 1 0.0 3.76055962 17.13246868 12.14935379
306 153 2 0.0 3.83720976 16.96785718 11.68347953
307 154 1 0.0 8.89842759 16.94221496 12.05380218
308 154 2 0.0 8.85046047 16.64862786 12.45569091
309 155 1 0.0 14.7528653 17.02676494 12.28434992
310 155 2 0.0 14.75137062 17.24493707 11.83445081
311 156 1 0.0 20.10190236 17.18798567 12.21522969
312 156 2 0.0 19.97700654 16.94822981 11.7946024
313 157 1 0.0 0.91554743 19.75547155 11.81666649
314 157 2 0.0 0.97903966 19.25956018 11.82320138
315 158 1 0.0 6.37196689 20.0858768 12.23505041
316 158 2 0.0 5.92359293 20.30241885 12.28053137
317 159 1 0.0 11.83167349 19.92025748 12.47263807
318 159 2 0.0 11.96378015 19.85338886 11.99505284
319 160 1 0.0 17.54821358 19.89042117 12.12445265
320 160 2 0.0 17.58650318 19.59568119 12.52653604
321 161 1 0.0 0.7780932 0.85264304 14.83608543
322 161 2 0.0 0.89101632 1.31319391 14.99465461
323 162 1 0.0 6.62137428 1.01775392 14.9156073
324 162 2 0.0 6.16436322 1.10602042 14.73298958
325 163 1 0.0 12.1085944 0.96284926 14.87089406
326 163 2 0.0 12.37954617 1.38162974 14.9056612
327 164 1 0.0 17.20789172 0.96962652 14.50364475
328 164 2 0.0 17.3762109 1.33020712 14.80639159
329 165 1 0.0 3.88698889 3.67461374 14.97337204
330 165 2 0.0 4.09183984 3.2641358 14.77450806
331 166 1 0.0 9.43906386 3.84091099 14.8479264
332 166 2 0.0 9.08502705 3.9407531 14.50926159
333 167 1 0.0 14.77016002 3.827159 14.83028264
334 167 2 0.0 14.62369285 3.35150077 14.78234091
335 168 1 0.0 20.20767019 3.80170317 14.78902694
336 168 2 0.0 20.48881377 3.46034809 15.02234604
337 169 1 0.0 0.86053241 6.62223074 14.907535
338 169 2 0.0 0.93191777 6.49232725 14.42999894
339 170 1 0.0 6.4322125 6.23418036 14.62692182
340 170 2 0.0 5.9906479 6.10522364 14.82285723
341 171 1 0.0 12.07622328 6.65266427 14.82493322
342 171 2 0.0 11.72421148 6.34191879 14.99676396
343 172 1 0.0 17.42416902 6.46636439 14.77836845
344 172 2 0.0 17.43370173 6.16402757 15.17650194
345 173 1 0.0 3.645086 9.29048216 15.00816175
346 173 2 0.0 4.05014956 9.109159 15.23847991
347 174 1 0.0 9.40702714 9.00954721 14.85358778
348 174 2 0.0 8.98580637 9.23820085 14.71114486
349 175 1 0.0 14.72818632 9.24263371 14.98285293
350 175 2 0.0 14.54313663 9.12111865 14.53452215
351 176 1 0.0 19.81622782 9.31109188 14.70804441
352 176 2 0.0 20.10334672 9.7204295 14.70560949
353 177 1 0.0 1.05734924 11.90762375 14.75510832
354 177 2 0.0 0.73189986 12.01809262 14.39194885
355 178 1 0.0 6.50447609 11.89855508 14.94337602
356 178 2 0.0 6.1700537 11.84675446 15.31145734
357 179 1 0.0 12.01548079 11.96363051 14.80129712
358 179 2 0.0 11.63576331 11.64406357 14.74054365
359 180 1 0.0 17.33584635 12.16301856 14.84222049
360 180 2 0.0 17.82676652 12.15174512 14.74805068
361 181 1 0.0 3.71018254 14.6664526 14.73932223
362 181 2 0.0 3.63395362 15.06625934 15.02975163
363 182 1 0.0 9.15238292 14.45834026 14.88822082
364 182 2 0.0 9.57516228 14.50759466 15.1505813
365 183 1 0.0 14.34080625 14.74650844 14.93650075
366 183 2 0.0 13.93426959 14.65359142 14.66064509
367 184 1 0.0 20.19478296 14.65232455 14.75808431
368 184 2 0.0 20.174748 15.12338585 14.59164176
369 185 1 0.0 0.87049705 17.33620774 15.01689105
370 185 2 0.0 0.45334876 17.29557688 15.28954128
371 186 1 0.0 6.290194 17.19120377 14.79047703
372 186 2 0.0 6.09007547 17.21824136 14.33305869
373 187 1 0.0 11.70095164 17.28554396 14.75210439
374 187 2 0.0 11.48436485 17.39514696 15.18923873
375 188 1 0.0 17.26031287 17.15617008 14.80968431
376 188 2 0.0 17.64923604 17.46965175 14.83129734
377 189 1 0.0 3.88185612 20.04915471 14.89815756
378 189 2 0.0 3.40534021 20.08682463 15.04482734
379 190 1 0.0 9.11106725 19.94000442 14.82381594
380 190 2 0.0 9.31531981 19.71241222 14.4282272
381 191 1 0.0 14.59380712 19.87177509 14.89725439
382 191 2 0.0 14.56866697 20.34867026 15.04538272
383 192 1 0.0 20.11014504 19.78964096 14.99092435
384 192 2 0.0 19.87159027 19.79420616 14.55151592
385 193 1 0.0 3.65735895 1.00569992 17.51516036
386 193 2 0.0 3.53974916 0.63659815 17.8312898
387 194 1 0.0 9.26817318 1.07380876 17.70416288
388 194 2 0.0 8.97028057 0.67241154 17.69230431
389 195 1 0.0 14.88426753 1.35132424 17.62064028
390 195 2 0.0 14.55807108 1.41374374 17.24686835
391 196 1 0.0 19.88081233 0.89578851 17.43266635
392 196 2 0.0 19.74005041 1.03795116 17.89090897
393 197 1 0.0 0.54038258 3.62767743 17.41792952
394 197 2 0.0 0.4106158 3.80330737 17.86773491
395 198 1 0.0 6.41082758 4.06952562 17.52631748
396 198 2 0.0 6.88016066 4.23150517 17.46726725
397 199 1 0.0 12.01700674 3.9226488 17.5524213
398 199 2 0.0 12.10221832 3.43437603 17.48661209
399 200 1 0.0 17.50291662 4.10506237 17.26922854
400 200 2 0.0 17.50047866 4.18053976 16.77495182
401 201 1 0.0 3.68022598 6.4098212 17.68096294
402 201 2 0.0 3.27681585 6.11444202 17.67775902
403 202 1 0.0 9.0815902 6.15344004 17.49862824
404 202 2 0.0 9.20492873 5.71463415 17.70415335
405 203 1 0.0 14.60938203 6.43690159 17.58133315
406 203 2 0.0 14.16784927 6.32470435 17.78739279
407 204 1 0.0 19.98257389 6.79721873 17.23540212
408 204 2 0.0 20.30218336 6.94997131 17.58827841
409 205 1 0.0 0.76360986 9.39882251 17.58385974
410 205 2 0.0 1.14604236 9.37680091 17.26251274
411 206 1 0.0 6.3027986 8.9903419 17.54132039
412 206 2 0.0 6.19578386 8.53762667 17.7246236
413 207 1 0.0 11.83265039 9.30972089 17.50534951
414 207 2 0.0 11.53788799 9.54139865 17.17452408
415 208 1 0.0 17.49157887 9.40171702 17.40568187
416 208 2 0.0 17.10483984 9.2919336 17.10838856
417 209 1 0.0 3.79742981 12.05216689 17.47688891
418 209 2 0.0 3.74359659 12.41782794 17.14013861
419 210 1 0.0 9.1980206 11.68791624 17.48181492
420 210 2 0.0 8.88473924 12.07278308 17.54291006
421 211 1 0.0 14.50483014 11.79955063 17.55804801
422 211 2 0.0 14.41918816 11.38806978 17.28720861
423 212 1 0.0 19.9768669 11.89803196 17.24213159
424 212 2 0.0 20.46787885 11.92108373 17.33363856
425 213 1 0.0 0.97089249 14.30255804 17.55717067
426 213 2 0.0 0.97973411 13.91687015 17.87524771
427 214 1 0.0 6.55973079 14.4247632 17.574287
428 214 2 0.0 6.63061929 14.25382942 17.10977927
429 215 1 0.0 11.96764904 14.41363015 17.56501045
430 215 2 0.0 12.17810666 14.14529777 17.1993438
431 216 1 0.0 17.42637955 14.80912117 17.83848624
432 216 2 0.0 17.02224045 15.09121188 17.92272142
433 217 1 0.0 3.35009082 17.08842762 17.73597239
434 217 2 0.0 3.54856257 17.01607018 18.18916464
435 218 1 0.0 8.88943948 17.25088403 17.45745456
436 218 2 0.0 8.48957658 17.07143773 17.69809953
437 219 1 0.0 14.34383102 17.32471882 18.02248259
438 219 2 0.0 14.71483403 17.43338695 18.33958121
439 220 1 0.0 20.13526181 17.09330641 17.7495605
440 220 2 0.0 20.55453981 16.96842637 17.50746141
441 221 1 0.0 0.90277302 20.20203964 17.85492068
442 221 2 0.0 1.28462212 20.1616147 18.17517142
443 222 1 0.0 6.33734963 20.11844734 17.8312424
444 222 2 0.0 6.06593084 20.00220375 17.42772452
445 223 1 0.0 12.11041285 20.04148205 17.85112098
446 223 2 0.0 12.10641682 19.77526951 17.42788999
447 224 1 0.0 17.05032211 19.69852111 17.20364329
448 224 2 0.0 16.91454865 19.75972064 16.72632643
449 225 1 0.0 0.89099572 1.15532223 20.23635977
450 225 2 0.0 0.58222374 0.76931686 20.16112563
451 226 1 0.0 6.24645412 1.09094694 20.24575495
452 226 2 0.0 5.84363246 1.28883723 20.02535752
453 227 1 0.0 12.15432998 0.95015902 20.36689415
454 227 2 0.0 12.52724466 1.26968439 20.46090416
455 228 1 0.0 17.41623138 0.99420703 20.13220993
456 228 2 0.0 17.15703246 1.40495967 20.2509515
457 229 1 0.0 3.54167698 3.92400188 20.2603892
458 229 2 0.0 3.05005242 4.0113618 20.28628973
459 230 1 0.0 8.9189012 3.73397953 20.11213749
460 230 2 0.0 8.62684985 4.13453282 20.17743426
461 231 1 0.0 14.62872923 4.08949333 20.25831079
462 231 2 0.0 14.64492745 3.65247232 20.01591687
463 232 1 0.0 19.90134043 3.72086513 19.98963738
464 232 2 0.0 19.88115323 3.31638013 20.28287798
465 233 1 0.0 0.73666032 6.62771512 20.12152748
466 233 2 0.0 0.41178985 7.00263132 20.18395496
467 234 1 0.0 6.18849932 6.34532733 20.35507146
468 234 2 0.0 6.12359913 5.97931015 20.02066741
469 235 1 0.0 11.76924835 6.48354606 20.27870707
470 235 2 0.0 11.48112349 6.77608111 19.99338068
471 236 1 0.0 17.42330414 6.59462332 20.2470116
472 236 2 0.0 17.35031551 7.08915097 20.23619047
473 237 1 0.0 3.94060371 9.26522694 20.25056148
474 237 2 0.0 3.76638841 9.73385451 20.2443364
475 238 1 0.0 8.90386619 8.86612836 20.13291511
476 238 2 0.0 9.26116554 9.1999542 20.23730618
477 239 1 0.0 14.40942319 9.15017385 19.97785192
478 239 2 0.0 14.54203727 9.40385265 19.56788934
479 240 1 0.0 20.20522279 9.01945576 20.93590749
480 240 2 0.0 20.02597837 9.23663567 20.52273332
481 241 1 0.0 0.67088603 11.89418068 20.13566032
482 241 2 0.0 0.22090633 11.68022148 20.17734804
483 242 1 0.0 6.63714194 11.85417561 20.08093426
484 242 2 0.0 6.24998805 11.62542889 20.29953869
485 243 1 0.0 11.44810355 11.62894444 20.45332301
486 243 2 0.0 11.65567377 12.03634841 20.65565832
487 244 1 0.0 17.40090415 11.63075894 20.296848
488 244 2 0.0 17.76685815 11.64167984 19.95631512
489 245 1 0.0 3.53754631 14.24594191 20.34341395
490 245 2 0.0 4.00182966 14.40474061 20.24738203
491 246 1 0.0 9.21518566 14.501171 20.16961907
492 246 2 0.0 8.87859908 14.35162982 20.50777806
493 247 1 0.0 14.85572753 14.48774347 20.15747927
494 247 2 0.0 15.24406207 14.43106727 19.84766132
495 248 1 0.0 20.03350514 14.49295873 20.38279174
496 248 2 0.0 19.89123753 14.87522589 20.09359123
497 249 1 0.0 0.60154702 17.4440962 20.32878776
498 249 2 0.0 0.33117333 17.22965209 19.96696201
499 250 1 0.0 6.0816265 17.36326522 20.2459374
500 250 2 0.0 5.85968744 17.03010514 20.54552425
501 251 1 0.0 11.66348974 17.33569197 20.79968896
502 251 2 0.0 11.589646 17.55705817 21.24190411
503 252 1 0.0 17.49420716 17.27655502 20.38683382
504 252 2 0.0 17.82612295 17.10581892 20.05413936
505 253 1 0.0 3.27847342 19.96450356 20.48196036
506 253 2 0.0 3.55239044 19.80142854 20.09675551
507 254 1 0.0 9.1842915 20.07062989 20.42690446
508 254 2 0.0 9.26429316 19.77959775 20.02827103
509 255 1 0.0 14.91595991 20.11699694 20.37563386
510 255 2 0.0 15.24793284 19.86276134 20.64978942
511 256 1 0.0 19.88254593 19.91773649 19.91954243
512 256 2 0.0 19.63931498 20.179111 19.56950229

Bonds

1 1 1 2
2 1 2 3
3 1 3 4
4 1 4 5
5 1 5 6
6 1 6 7
7 1 7 8
8 1 8 9
9 1 9 10
10 1 10 11
11 1 11 12
12 1 12 13
13 1 13 14
14 1 14 15
15 1 15 16
16 1 16 17
17 1 17 18
18 1 18 19
19 1 19 20
20 1 20 21
21 1 21 22
22 1 22 23
23 1 23 24
24 1 24 25
25 1 25 26
26 1 26 27
27 1 27 28
28 1 28 29
29 1 29 30
30 1 30 31
31 1 31 32
32 1 32 33
33 1 33 34
34 1 34 35
35 1 35 36
36 1 36 37
37 1 37 38
38 1 38 39
39 1 39 40
40 1 40 41
41 1 41 42
42 1 42 43
43 1 43 44
44 1 44 45
45 1 45 46
46 1 46 47
47 1 47 48
48 1 48 49
49 1 49 50
50 1 50 51
51 1 51 52
52 1 52 53
53 1 53 54
54 1 54 55
55 1 55 56
56 1 56 57
57 1 57 58
58 1 58 59
59 1 59 60
60 1 60 61
61 1 61 62
62 1 62 63
63 1 63 64
64 1 64 65
65 1 65 66
66 1 66 67
67 1 67 68
68 1 68 69
69 1 69 70
70 1 70 71
71 1 71 72
72 1 72 73
73 1 73 74
74 1 74 75
75 1 75 76
76 1 76 77
77 1 77 78
78 1 78 79
79 1 79 80
80 1 80 81
81 1 81 82
82 1 82 83
83 1 83 84
84 1 84 85
85 1 85 86
86 1 86 87
87 1 87 88
88 1 88 89
89 1 89 90
90 1 90 91
91 1 91 92
92 1 92 93
93 1 93 94
94 1 94 95
95 1 95 96
96 1 96 97
97 1 97 98
98 1 98 99
99 1 99 100
100 1 100 101
101 1 101 102
102 1 102 103
103 1 103 104
104 1 104 105
105 1 105 106
106 1 106 107
107 1 107 108
108 1 108 109
109 1 109 110
110 1 110 111
111 1 111 112
112 1 112 113
113 1 113 114
114 1 114 115
115 1 115 116
116 1 116 117
117 1 117 118
118 1 118 119
119 1 119 120
120 1 120 121
121 1 121 122
122 1 122 123
123 1 123 124
124 1 124 125
125 1 125 126
126 1 126 127
127 1 127 128
128 1 128 129
129 1 129 130
130 1 130 131
131 1 131 132
132 1 132 133
133 1 133 134
134 1 134 135
135 1 135 136
136 1 136 137
137 1 137 138
138 1 138 139
139 1 139 140
140 1 140 141
141 1 141 142
142 1 142 143
143 1 143 144
144 1 144 145
145 1 145 146
146 1 146 147
147 1 147 148
148 1 148 149
149 1 149 150
150 1 150 151
151 1 151 152
152 1 152 153
153 1 153 154
154 1 154 155
155 1 155 156
156 1 156 157
157 1 157 158
158 1 158 159
159 1 159 160
160 1 160 161
161 1 161 162
162 1 162 163
163 1 163 164
164 1 164 165
165 1 165 166
166 1 166 167
167 1 167 168
168 1 168 169
169 1 169 170
170 1 170 171
171 1 171 172
172 1 172 173
173 1 173 174
174 1 174 175
175 1 175 176
176 1 176 177
177 1 177 178
178 1 178 179
179 1 179 180
180 1 180 181
181 1 181 182
182 1 182 183
183 1 183 184
184 1 184 185
185 1 185 186
186 1 186 187
187 1 187 188
188 1 188 189
189 1 189 190
190 1 190 191
191 1 191 192
192 1 192 193
193 1 193 194
194 1 194 195
195 1 195 196
196 1 196 197
197 1 197 198
198 1 198 199
199 1 199 200
200 1 200 201
201 1 201 202
202 1 202 203
203 1 203 204
204 1 204 205
205 1 205 206
206 1 206 207
207 1 207 208
208 1 208 209
209 1 209 210
210 1 210 211
211 1 211 212
212 1 212 213
213 1 213 214
214 1 214 215
215 1 215 216
216 1 216 217
217 1 217 218
218 1 218 219
219 1 219 220
220 1 220 221
221 1 221 222
222 1 222 223
223 1 223 224
224 1 224 225
225 1 225 226
226 1 226 227
227 1 227 228
228 1 228 229
229 1 229 230
230 1 230 231
231 1 231 232
232 1 232 233
233 1 233 234
234 1 234 235
235 1 235 236
236 1 236 237
237 1 237 238
238 1 238 239
239 1 239 240
240 1 240 241
241 1 241 242
242 1 242 243
243 1 243 244
244 1 244 245
245 1 245 246
246 1 246 247
247 1 247 248
248 1 248 249
249 1 249 250
250 1 250 251
251 1 251 252
252 1 252 253
253 1 253 254
254 1 254 255
255 1 255 256
256 1 256 257
257 1 257 258
258 1 258 259
259 1 259 260
260 1 260 261
261 1 261 262
262 1 262 263
263 1 263 264
264 1 264 265
265 1 265 266
266 1 266 267
267 1 267 268
268 1 268 269
269 1 269 270
270 1 270 271
271 1 271 272
272 1 272 273
273 1 273 274
274 1 274 275
275 1 275 276
276 1 276 277
277 1 277 278
278 1 278 279
279 1 279 280
280 1 280 281
281 1 281 282
282 1 282 283
283 1 283 284
284 1 284 285
285 1 285 286
286 1 286 287
287 1 287 288
288 1 288 289
289 1 289 290
290 1 290 291
291 1 291 292
292 1 292 293
293 1 293 294
294 1 294 295
295 1 295 296
296 1 296 297
297 1 297 298
298 1 298 299
299 1 299 300
300 1 300 301
301 1 301 302
302 1 302 303
303 1 303 304
304 1 304 305
305 1 305 306
306 1 306 307
307 1 307 308
308 1 308 309
309 1 309 310
310 1 310 311
311 1 311 312
312 1 312 313
313 1 313 314
314 1 314 315
315 1 315 316
316 1 316 317
317 1 317 318
318 1 318 319
319 1 319 320
320 1 320 321
321 1 321 322
322 1 322 323
323 1 323 324
324 1 324 325
325 1 325 326
326 1 326 327
327 1 327 328
328 1 328 329
329 1 329 330
330 1 330 331
331 1 331 332
332 1 332 333
333 1 333 334
334 1 334 335
335 1 335 336
336 1 336 337
337 1 337 338
338 1 338 339
339 1 339 340
340 1 340 341
341 1 341 342
342 1 342 343
343 1 343 344
344 1 344 345
345 1 345 346
346 1 346 347
347 1 347 348
348 1 348 349
349 1 349 350
350 1 350 351
351 1 351 352
352 1 352 353
353 1 353 354
354 1 354 355
355 1 355 356
356 1 356 357
357 1 357 358
358 1 358 359
359 1 359 360
360 1 360 361
361 1 361 362
362 1 362 363
363 1 363 364
364 1 364 365
365 1 365 366
366 1 366 367
367 1 367 368
368 1 368 369
369 1 369 370
370 1 370 371
371 1 371 372
372 1 372 373
373 1 373 374
374 1 374 375
375 1 375 376
376 1 376 377
377 1 377 378
378 1 378 379
379 1 379 380
380 1 380 381
381 1 381 382
382 1 382 383
383 1 383 384
384 1 384 385
385 1 385 386
386 1 386 387
387 1 387 388
388 1 388 389
389 1 389 390
390 1 390 391
391 1 391 392
392 1 392 393
393 1 393 394
394 1 394 395
395 1 395 396
396 1 396 397
397 1 397 398
398 1 398 399
399 1 399 400
400 1 400 401
401 1 401 402
402 1 402 403
403 1 403 404
404 1 404 405
405 1 405 406
406 1 406 407