LAMMPS datafile

2824 atoms
10 atom types
93 bonds
6 bond types
0 angles
0 angle types

0.0 47.0  xlo xhi
0.0 47.0  ylo yhi
0.0 47.0  zlo zhi

Masses

1 39.748
2 0.2
3 39.748
4 0.2
5 39.948
6 39.948
7 39.748
8 0.2
9 39.748
10 0.2

Atoms

1 1 1 0.0 42.552734 6.610297 44.516512
2 1 2 0.0 42.58896015463959 6.619589376530911 44.525521384701044
3 1 3 0.0 42.561604 6.34961 44.08994
4 1 4 0.0 42.58259442333075 6.377471396119569 44.09464673742845
5 2 1 0.0 31.867945 15.850995 39.35961
6 2 2 0.0 31.90858617715533 15.872500714757628 39.373771274634855
7 2 3 0.0 31.843427 15.865177 39.858808
8 2 4 0.0 31.889137818473262 15.89938392313769 39.89397767253211
9 3 1 0.0 39.408474 17.09758 23.788532
10 3 2 0.0 39.420050104859776 17.125368077662888 23.79144427345571
11 3 3 0.0 39.344591 16.665686 23.544838
12 3 4 0.0 39.38142292507116 16.695973370826305 23.58593832617733
13 4 1 0.0 43.923659 32.292492 9.274568
14 4 2 0.0 43.93419213199816 32.341110452195544 9.28039642271703
15 4 3 0.0 44.289497 32.624573 9.197857
16 4 4 0.0 44.30882393876877 32.646607695179995 9.221780285018404
17 5 1 0.0 45.68565 12.199661 45.073938
18 5 2 0.0 45.695259260138585 12.224504732797579 45.10419768410762
19 5 3 0.0 45.422939 12.0493 45.471901
20 5 4 0.0 45.43107796059154 12.063879203410867 45.48025621522255
21 6 1 0.0 33.360815 20.74635 2.457979
22 6 2 0.0 33.40239458927675 20.752700070386975 2.460435327325419
23 6 3 0.0 33.523319 20.874619 2.002853
24 6 4 0.0 33.56544859740348 20.91448191772344 2.0234541293687203
25 7 1 0.0 23.655066 26.627697 39.511001
26 7 2 0.0 23.69260624366903 26.63268876790061 39.5285103490757
27 7 3 0.0 24.029678 26.650816 39.18065
28 7 4 0.0 24.060399779799624 26.683625164381883 39.19710404118449
29 8 1 0.0 41.522455 14.421012 46.294868
30 8 2 0.0 41.566134264721065 14.433049019539018 46.337518208383074
31 8 3 0.0 41.986159 14.606493 46.318869
32 8 4 0.0 41.988623438139555 14.635630249383242 46.32460056137943
33 9 1 0.0 32.280055 3.024252 30.408219
34 9 2 0.0 32.2993816513022 3.0655109560313862 30.414765305634305
35 9 3 0.0 32.356906 3.375886 30.755274
36 9 4 0.0 32.35870847962926 3.4070357146851933 30.773261600021836
37 10 1 0.0 41.987438 22.176739 2.737422
38 10 2 0.0 42.02126920844437 22.197817157528984 2.75937090720769
39 10 3 0.0 41.736263 22.608853 2.723667
40 10 4 0.0 41.73781611737863 22.6163090637244 2.7674173232198007
41 11 1 0.0 11.823713 0.010521 0.031422
42 11 2 0.0 11.823951327099145 0.04789536387548574 0.037772813309762954
43 11 3 0.0 11.391248 0.109407 0.262063
44 11 4 0.0 11.413755241724377 0.15633772437933197 0.30307850414235044
45 12 1 0.0 4.953865 29.863796 17.93945
46 12 2 0.0 4.9697655340894835 29.910341022497445 17.986982752918987
47 12 3 0.0 4.875708 29.828002 17.446895
48 12 4 0.0 4.878093640281506 29.86799804454242 17.482945559397436
49 13 1 0.0 30.833147 33.632279 25.380748
50 13 2 0.0 30.879935920784796 33.66240272707772 25.40422008267437
51 13 3 0.0 30.484008 33.542228 25.727147
52 13 4 0.0 30.524489132413933 33.57741011264366 25.727258416895257
53 14 1 0.0 40.14667 2.355267 17.697205
54 14 2 0.0 40.16818253515668 2.3714593139611186 17.70063669005981
55 14 3 0.0 40.091663 2.289743 17.204578
56 14 4 0.0 40.12997440683388 2.3259430351928843 17.21114428485177
57 15 1 0.0 32.795122 22.21542 38.56194
58 15 2 0.0 32.82756870232437 22.21957540005394 38.565475977712275
59 15 3 0.0 32.316747 22.070054 38.556825
60 15 4 0.0 32.33060999797716 22.109571839278924 38.597967847354965
61 16 1 0.0 43.632485 30.49363 44.409123
62 16 2 0.0 43.642575781665805 30.526088229235373 44.45597315793456
63 16 3 0.0 43.650162 30.816302 44.027586
64 16 4 0.0 43.68143376806333 30.8444646137991 44.072343192577385
65 17 1 0.0 16.744279 19.583283 19.495285
66 17 2 0.0 16.771038058056345 19.58843842431018 19.53946680778333
67 17 3 0.0 16.648524 20.055852 19.627607
68 17 4 0.0 16.679411664140755 20.063491850700633 19.664306629592296
69 18 1 0.0 35.657506 35.486748 5.13486
70 18 2 0.0 35.69915809733621 35.48773864303752 5.164725697433484
71 18 3 0.0 36.150948 35.492204 5.054332
72 18 4 0.0 36.19885262465035 35.532382793931845 5.1033293352384534
73 19 1 0.0 30.799974 41.928775 17.372903
74 19 2 0.0 30.835757650034708 41.95940621888595 17.397462889705896
75 19 3 0.0 30.930331 41.650541 17.767356
76 19 4 0.0 30.978817857738605 41.65707491992898 17.802971177740137
77 20 1 0.0 0.787867 31.706234 15.693206
78 20 2 0.0 0.8311856394479628 31.744157478834 15.729883183539716
79 20 3 0.0 0.704625 32.098321 15.992101
80 20 4 0.0 0.7172814468120124 32.10625876582014 16.005977059644955
81 21 1 0.0 12.319496 40.108118 0.341643
82 21 2 0.0 12.33888354813597 40.14247517684547 0.3755855778176256
83 21 3 0.0 12.431772 39.729005 0.035592
84 21 4 0.0 12.434628458905326 39.75784053608921 0.08010716375371808
85 22 1 0.0 22.946565 0.980722 23.353412
86 22 2 0.0 22.987640901101337 1.0100599626624889 23.365971814433856
87 22 3 0.0 22.842696 1.105303 22.880453
88 22 4 0.0 22.84528013198423 1.1185802372179903 22.884138985259273
89 23 1 0.0 31.591864 0.363726 20.561096
90 23 2 0.0 31.63152514247365 0.3803101700203395 20.585284968550997
91 23 3 0.0 31.515745 0.02958 20.925174
92 23 4 0.0 31.53553221695811 0.06701456369884473 20.965253233735872
93 24 1 0.0 18.730033 36.361641 22.483439
94 24 2 0.0 18.741966338174596 36.382512511981936 22.53011542322411
95 24 3 0.0 18.709885 36.23277 22.000752
96 24 4 0.0 18.739657556403944 36.25254276903728 22.01839842381267
97 25 1 0.0 26.188097 14.576559 34.808671
98 25 2 0.0 26.213970519307093 14.600124105967922 34.819365023880565
99 25 3 0.0 26.486977 14.445384 35.187437
100 25 4 0.0 26.522248756966793 14.482180615673936 35.204053817626466
101 26 1 0.0 46.343232 35.561532 22.885739
102 26 2 0.0 46.34554409579108 35.57270719438855 22.911100683520665
103 26 3 0.0 46.248869 36.051248 22.92143
104 26 4 0.0 46.28808743703576 36.09502244500416 22.926433080400297
105 27 1 0.0 -0.014483 21.883284 34.223616
106 27 2 0.0 -0.004642363218798736 21.897993318749915 34.267522955302454
107 27 3 0.0 0.103317 21.479719 34.494279
108 27 4 0.0 0.15302207943918042 21.49981867188166 34.525825800959815
109 28 1 0.0 30.819162 41.063425 31.536851
110 28 2 0.0 30.837720040429804 41.07488596604663 31.574042378840872
111 28 3 0.0 30.647244 40.594435 31.559047
112 28 4 0.0 30.662515658761006 40.616794487003745 31.59958963603971
113 29 1 0.0 31.856569 43.01248 3.72935
114 29 2 0.0 31.86777274519597 43.03825817883874 3.7455901486747716
115 29 3 0.0 31.951103 43.107754 4.211
116 29 4 0.0 31.961249589181595 43.1184707318294 4.217719467801339
117 30 1 0.0 23.456889 35.315553 36.073049
118 30 2 0.0 23.475404450826016 35.36350165533028 36.08432020905161
119 30 3 0.0 23.481165 35.534654 35.624266
120 30 4 0.0 23.526180260470465 35.58338603858876 35.62632068825844
121 31 5 0.0 12.004255 44.014681 40.937338
122 31 6 0.0 11.939279 44.135012 41.418273
123 32 5 0.0 4.778777 21.433096 5.906595
124 32 6 0.0 4.715312 21.908342 6.048416
125 33 5 0.0 46.647503 40.041607 7.327552
126 33 6 0.0 46.988286 40.374793 7.176376
127 34 5 0.0 22.672523 7.431149 38.795623
128 34 6 0.0 22.716446 7.338805 38.306191
129 35 5 0.0 36.242987 44.795305 19.63255
130 35 6 0.0 36.274168 45.261148 19.453615
131 36 5 0.0 7.789267 22.940223 3.956354
132 36 6 0.0 7.530191 22.765521 3.566022
133 37 5 0.0 14.717205 18.215415 27.295111
134 37 6 0.0 14.808972 18.295276 27.780087
135 38 5 0.0 34.703091 13.163367 28.858919
136 38 6 0.0 35.14321 13.395448 28.809595
137 39 5 0.0 1.046336 11.485439 24.987624
138 39 6 0.0 1.44741 11.191109 25.037716
139 40 5 0.0 18.530968 40.43125 47.0
140 40 6 0.0 18.456529 40.437015 46.505606
141 41 5 0.0 17.179595 5.265431 23.147423
142 41 6 0.0 16.693381 5.22962 23.258387
143 42 5 0.0 31.794581 21.699757 34.274723
144 42 6 0.0 31.951635 21.843675 34.727075
145 43 5 0.0 22.358897 37.478144 46.727361
146 43 6 0.0 22.241702 37.075694 46.99994
147 44 5 0.0 4.412925 42.257814 0.155924
148 44 6 0.0 4.421959 42.731752 -0.003138
149 45 5 0.0 16.812745 3.643316 31.457642
150 45 6 0.0 16.827563 3.618574 30.958474
151 46 5 0.0 35.299557 39.962181 11.897017
152 46 6 0.0 35.76767 40.137599 11.906948
153 47 5 0.0 30.758555 23.599286 2.42192
154 47 6 0.0 30.747112 23.757172 1.947641
155 48 5 0.0 10.192982 27.988779 20.495653
156 48 6 0.0 10.564306 27.85695 20.803451
157 49 5 0.0 37.571551 38.835148 35.344676
158 49 6 0.0 37.426868 38.682001 35.798121
159 50 5 0.0 24.573464 13.969842 23.633803
160 50 6 0.0 24.946589 14.113605 23.333619
161 51 5 0.0 12.243042 5.046564 34.614719
162 51 6 0.0 12.319602 4.562086 34.517661
163 52 5 0.0 31.082196 22.676973 10.626941
164 52 6 0.0 30.942409 22.636476 10.14859
165 53 5 0.0 2.263117 3.439823 25.353685
166 53 6 0.0 2.56738 3.097855 25.554887
167 54 5 0.0 29.056392 26.8136 18.665274
168 54 6 0.0 29.336237 26.759868 19.076126
169 55 5 0.0 37.813042 24.968754 25.401574
170 55 6 0.0 37.769267 25.269934 25.004869
171 56 5 0.0 8.421922 13.649884 23.208778
172 56 6 0.0 8.259303 13.676025 22.736686
173 57 5 0.0 21.310807 0.940556 35.428916
174 57 6 0.0 20.868061 1.149465 35.327267
175 58 5 0.0 29.814538 11.080367 3.444302
176 58 6 0.0 30.149335 10.724183 3.549394
177 59 5 0.0 12.709888 30.15507 28.994329
178 59 6 0.0 13.048766 30.08808 28.632839
179 60 5 0.0 16.733157 37.035572 40.708938
180 60 6 0.0 16.43784 36.872725 41.078084
181 61 5 0.0 28.863442 9.01584 41.03558
182 61 6 0.0 29.002432 8.747592 41.433982
183 62 5 0.0 31.778499 38.57272 43.049975
184 62 6 0.0 31.912431 38.819497 43.463694
185 63 5 0.0 5.346216 32.48938 33.261232
186 63 6 0.0 5.655817 32.877294 33.321804
187 64 5 0.0 6.582699 37.749937 39.166585
188 64 6 0.0 6.309559 37.534352 39.525635
189 65 5 0.0 21.575443 31.626219 16.439846
190 65 6 0.0 21.25057 31.373046 16.156365
191 66 5 0.0 27.806441 39.170831 23.3668
192 66 6 0.0 27.952973 39.056788 23.831045
193 67 5 0.0 43.439646 38.930194 17.604841
194 67 6 0.0 43.058819 38.873393 17.923815
195 68 5 0.0 41.346668 29.112683 24.534745
196 68 6 0.0 41.343693 29.605798 24.45211
197 69 5 0.0 33.189109 2.98848 7.990633
198 69 6 0.0 33.287075 2.928688 7.503983
199 70 5 0.0 31.408157 33.238079 12.249754
200 70 6 0.0 31.796082 32.925259 12.209043
201 71 5 0.0 15.372875 43.979435 9.370648
202 71 6 0.0 15.836291 44.166046 9.350097
203 72 5 0.0 23.17197 40.622514 9.919168
204 72 6 0.0 23.456172 41.011632 9.785689
205 73 5 0.0 45.288439 40.268005 44.347091
206 73 6 0.0 45.072349 39.898651 44.088473
207 74 5 0.0 19.221411 15.101727 0.825752
208 74 6 0.0 19.235997 15.020641 0.332587
209 75 5 0.0 10.459167 10.661995 15.58708
210 75 6 0.0 10.689802 10.837176 15.994657
211 76 5 0.0 46.973105 6.763333 17.222664
212 76 6 0.0 46.995958 6.742143 16.723636
213 77 5 0.0 24.365455 3.655622 45.470797
214 77 6 0.0 24.424323 4.021174 45.806812
215 78 5 0.0 33.551594 28.402993 39.201024
216 78 6 0.0 33.313448 28.456645 38.764667
217 79 5 0.0 29.321468 5.307308 28.339871
218 79 6 0.0 29.049256 5.517686 27.977047
219 80 5 0.0 25.512095 37.6436 43.340161
220 80 6 0.0 25.41391 37.671134 43.829653
221 81 5 0.0 33.74076 2.735268 26.868302
222 81 6 0.0 33.795037 3.216111 26.742429
223 82 5 0.0 31.821372 37.505909 8.201482
224 82 6 0.0 31.746329 37.54058 8.694601
225 83 5 0.0 46.305468 40.881065 40.141766
226 83 6 0.0 46.436854 40.878422 40.624188
227 84 5 0.0 42.403071 45.876322 5.499651
228 84 6 0.0 42.2605 46.323175 5.326456
229 85 5 0.0 10.866022 44.416116 20.980172
230 85 6 0.0 10.932824 44.306734 21.463466
231 86 5 0.0 34.056093 34.653734 23.522992
232 86 6 0.0 34.199336 35.025602 23.221006
233 87 5 0.0 3.381798 41.817838 21.031784
234 87 6 0.0 3.319504 41.450018 20.698875
235 88 5 0.0 28.964147 24.361309 33.104185
236 88 6 0.0 28.850229 24.075128 33.498042
237 89 5 0.0 24.897052 22.820176 26.389399
238 89 6 0.0 25.309328 22.553021 26.296358
239 90 5 0.0 10.175818 3.724018 13.643755
240 90 6 0.0 10.297338 3.863631 14.108235
241 91 5 0.0 20.549049 43.406445 10.682536
242 91 6 0.0 20.455365 43.392785 10.191581
243 92 5 0.0 21.052933 35.241345 11.158306
244 92 6 0.0 21.243482 35.429842 11.580396
245 93 5 0.0 11.02056 38.881903 12.436401
246 93 6 0.0 11.086775 39.236464 12.090132
247 94 5 0.0 46.267943 24.31445 38.509323
248 94 6 0.0 46.677405 24.558592 38.660106
249 95 5 0.0 5.017869 13.850243 6.290575
250 95 6 0.0 4.571832 13.638591 6.211486
251 96 5 0.0 33.483921 37.445084 34.887571
252 96 6 0.0 33.732696 37.834755 35.078012
253 97 5 0.0 21.770161 4.862608 34.746
254 97 6 0.0 22.240841 4.719136 34.834743
255 98 5 0.0 46.990878 25.391702 23.980238
256 98 6 0.0 46.573661 25.655504 24.059855
257 99 5 0.0 11.918517 35.652595 28.495432
258 99 6 0.0 11.907167 35.459357 28.034422
259 100 5 0.0 23.242682 0.007809 11.118157
260 100 6 0.0 23.392539 0.243222 11.533034
261 101 5 0.0 41.748357 31.237028 32.309783
262 101 6 0.0 41.398737 31.534567 32.507864
263 102 5 0.0 33.942008 5.644136 35.443133
264 102 6 0.0 33.673254 5.843222 35.071466
265 103 5 0.0 1.344977 32.192963 26.62665
266 103 6 0.0 1.749037 32.408145 26.425572
267 104 5 0.0 30.820061 21.089322 16.371624
268 104 6 0.0 30.777179 20.595376 16.436265
269 105 5 0.0 28.901867 31.853413 39.466733
270 105 6 0.0 29.134534 31.442477 39.631044
271 106 5 0.0 11.927068 35.267316 44.095384
272 106 6 0.0 11.709707 35.613873 44.382878
273 107 5 0.0 4.703325 34.162804 43.576011
274 107 6 0.0 5.098052 33.910112 43.750187
275 108 5 0.0 40.483258 10.806814 25.093094
276 108 6 0.0 40.302237 10.481024 24.759789
277 109 5 0.0 26.72774 3.473795 31.628231
278 109 6 0.0 26.62382 3.391401 31.14614
279 110 5 0.0 7.015716 26.014931 43.836738
280 110 6 0.0 6.763925 25.631558 43.637674
281 111 5 0.0 46.805339 7.759119 38.908849
282 111 6 0.0 46.427333 8.015663 38.705634
283 112 5 0.0 3.169437 7.09396 5.428261
284 112 6 0.0 3.036866 7.524879 5.212081
285 113 5 0.0 4.180549 3.148544 19.277042
286 113 6 0.0 4.091954 3.198003 18.787445
287 114 5 0.0 39.991078 20.523899 41.948414
288 114 6 0.0 39.704598 20.445905 42.350715
289 115 5 0.0 42.36716 34.538452 40.996056
290 115 6 0.0 42.118249 34.833821 40.678565
291 116 5 0.0 35.949874 23.36806 21.695525
292 116 6 0.0 35.947019 23.368903 22.195516
293 117 5 0.0 3.64475 17.157246 4.843401
294 117 6 0.0 3.373841 17.181008 5.262977
295 118 5 0.0 28.985395 26.146631 24.962996
296 118 6 0.0 28.969006 26.106766 24.464857
297 119 5 0.0 32.311137 19.449591 6.377179
298 119 6 0.0 32.354948 19.439172 6.875147
299 120 5 0.0 23.516678 42.857893 34.083047
300 120 6 0.0 23.437413 43.097896 33.651636
301 121 5 0.0 34.617343 32.083696 0.003888
302 121 6 0.0 34.78193 31.612418 0.03231
303 122 5 0.0 28.869608 5.237601 0.285094
304 122 6 0.0 29.27974 5.312547 0.009096
305 123 5 0.0 32.077607 42.117257 45.536334
306 123 6 0.0 31.584751 42.104536 45.453084
307 124 5 0.0 38.444105 34.209523 14.93044
308 124 6 0.0 38.638591 33.879925 15.252217
309 125 5 0.0 30.34168 0.721034 5.205487
310 125 6 0.0 30.279514 0.500059 4.761296
311 126 5 0.0 13.593968 3.785104 7.727269
312 126 6 0.0 13.468042 4.198976 7.476566
313 127 5 0.0 16.731551 5.107637 35.033056
314 127 6 0.0 16.975912 5.471534 35.273611
315 128 5 0.0 28.275076 40.463152 10.955346
316 128 6 0.0 27.934125 40.82771 10.984497
317 129 5 0.0 27.47053 21.236344 22.791048
318 129 6 0.0 27.436761 21.248948 23.289747
319 130 5 0.0 30.322345 42.921091 23.215681
320 130 6 0.0 30.314276 42.95345 22.716795
321 131 5 0.0 34.070782 7.006048 6.82594
322 131 6 0.0 33.86299 6.721241 7.180493
323 132 5 0.0 46.195263 33.237448 12.492939
324 132 6 0.0 46.500644 33.616882 12.379927
325 133 5 0.0 22.285666 32.337841 29.345174
326 133 6 0.0 22.205692 31.851805 29.431043
327 134 5 0.0 43.176143 47.005051 16.100038
328 134 6 0.0 43.674335 46.98929 16.060579
329 135 5 0.0 36.343064 31.025892 11.493298
330 135 6 0.0 36.153562 31.362929 11.810308
331 136 5 0.0 20.905866 14.926402 8.098988
332 136 6 0.0 20.917466 14.983182 8.595618
333 137 5 0.0 26.382092 1.696837 41.352844
334 137 6 0.0 26.418779 1.207109 41.258921
335 138 5 0.0 8.186175 47.00852 9.989785
336 138 6 0.0 8.080807 46.658488 9.648647
337 139 5 0.0 34.714438 36.32501 19.661767
338 139 6 0.0 34.721594 36.32319 19.161822
339 140 5 0.0 23.302823 13.935807 28.301439
340 140 6 0.0 23.349534 14.051287 27.817205
341 141 5 0.0 14.123604 17.736248 16.32304
342 141 6 0.0 13.660206 17.923922 16.329394
343 142 5 0.0 14.694469 1.142246 17.912662
344 142 6 0.0 14.329786 1.286887 18.222638
345 143 5 0.0 36.136819 34.744393 41.929573
346 143 6 0.0 36.328845 34.814111 41.473212
347 144 5 0.0 42.064744 42.224128 43.480905
348 144 6 0.0 41.633962 42.262639 43.731792
349 145 5 0.0 35.658586 0.589136 13.866525
350 145 6 0.0 35.473351 1.04915 13.802687
351 146 5 0.0 36.560555 5.481788 25.327626
352 146 6 0.0 36.822418 5.641659 24.932823
353 147 5 0.0 36.477399 43.528052 36.582526
354 147 6 0.0 36.9711 43.47149 36.63784
355 148 5 0.0 42.723411 34.660813 0.478643
356 148 6 0.0 42.562053 34.65873 0.0054
357 149 5 0.0 31.505117 18.319355 11.728158
358 149 6 0.0 31.786788 18.731328 11.697508
359 150 5 0.0 30.50436 3.866681 24.837441
360 150 6 0.0 30.276691 4.07545 24.444272
361 151 5 0.0 19.631608 35.667007 35.814465
362 151 6 0.0 19.630944 35.874234 35.359431
363 152 5 0.0 10.528426 19.376682 19.810565
364 152 6 0.0 10.173926 19.438092 20.157781
365 153 5 0.0 8.122806 16.125624 42.882835
366 153 6 0.0 8.112724 16.106873 43.382381
367 154 5 0.0 43.802738 3.236268 28.675392
368 154 6 0.0 43.30355 3.262511 28.686444
369 155 5 0.0 22.691379 0.000461 -0.001148
370 155 6 0.0 22.704815 0.000254 0.498671
371 156 5 0.0 43.503309 12.01809 28.992514
372 156 6 0.0 43.780311 12.161833 29.383165
373 157 5 0.0 46.999243 20.88232 27.310587
374 157 6 0.0 46.956944 21.013718 27.791155
375 158 5 0.0 41.356876 13.272899 22.229508
376 158 6 0.0 41.56334 12.914518 21.948553
377 159 5 0.0 25.274691 33.441759 46.067497
378 159 6 0.0 25.062597 33.404403 46.518741
379 160 5 0.0 28.145092 45.210004 5.126774
380 160 6 0.0 28.318825 44.765251 4.97841
381 161 5 0.0 17.104815 45.013342 36.478545
382 161 6 0.0 17.234031 44.823745 36.922793
383 162 5 0.0 26.859104 31.248539 43.325454
384 162 6 0.0 27.154786 31.543838 43.050917
385 163 5 0.0 19.798515 14.508683 24.631791
386 163 6 0.0 19.961395 14.187176 24.97835
387 164 5 0.0 46.146742 26.947308 0.182499
388 164 6 0.0 46.121476 27.417637 0.014712
389 165 5 0.0 30.025924 25.539358 13.637517
390 165 6 0.0 30.417173 25.369082 13.898152
391 166 5 0.0 8.52496 6.26577 16.644175
392 166 6 0.0 8.276373 6.367552 16.222458
393 167 5 0.0 20.884065 19.826025 20.396865
394 167 6 0.0 20.449575 20.037397 20.525475
395 168 5 0.0 13.491272 43.737087 36.152385
396 168 6 0.0 13.44519 43.783305 36.648107
397 169 5 0.0 22.942542 10.036794 42.146971
398 169 6 0.0 22.679701 9.908841 41.741333
399 170 5 0.0 7.666041 26.799103 4.142245
400 170 6 0.0 7.690699 26.727186 4.636431
401 171 5 0.0 27.919664 33.677466 6.485013
402 171 6 0.0 28.107115 33.82711 6.046301
403 172 5 0.0 46.059815 25.774572 30.825501
404 172 6 0.0 46.234407 25.402947 30.540172
405 173 5 0.0 25.094915 20.868808 6.017529
406 173 6 0.0 25.450092 20.987554 6.348813
407 174 5 0.0 27.226647 0.263833 11.84812
408 174 6 0.0 27.614859 0.007426 12.031278
409 175 5 0.0 32.235794 24.57524 22.209377
410 175 6 0.0 32.058544 24.131438 22.062331
411 176 5 0.0 39.927421 23.423771 6.020064
412 176 6 0.0 39.809852 23.168878 6.433836
413 177 5 0.0 15.822018 43.550549 40.733579
414 177 6 0.0 16.00088 43.418837 40.285628
415 178 5 0.0 1.181523 0.616421 32.630609
416 178 6 0.0 1.175497 0.621637 32.130673
417 179 5 0.0 33.555025 12.359326 2.837379
418 179 6 0.0 33.38516 12.622644 2.447751
419 180 5 0.0 34.664685 9.814346 19.185916
420 180 6 0.0 34.935754 9.65585 18.796813
421 181 5 0.0 39.17979 10.437996 3.226473
422 181 6 0.0 39.13367 10.529651 2.737114
423 182 5 0.0 8.538159 19.922556 36.219721
424 182 6 0.0 9.017651 19.841139 36.33573
425 183 5 0.0 25.218101 34.924854 40.035853
426 183 6 0.0 25.021742 35.216486 40.391373
427 184 5 0.0 8.895609 32.667401 20.436521
428 184 6 0.0 9.179391 32.652808 20.025116
429 185 5 0.0 14.319433 7.466502 4.811537
430 185 6 0.0 14.109001 7.239251 5.204061
431 186 5 0.0 18.421518 46.999896 3.338285
432 186 6 0.0 18.062518 46.722534 3.548498
433 187 5 0.0 8.257553 22.367102 42.24648
434 187 6 0.0 8.243457 22.362296 41.746702
435 188 5 0.0 22.205675 6.495684 27.052614
436 188 6 0.0 22.14548 6.901582 26.766917
437 189 5 0.0 24.073138 25.107549 12.115467
438 189 6 0.0 23.848764 24.679675 12.244229
439 190 5 0.0 6.867877 30.050436 41.370906
440 190 6 0.0 7.193808 30.393443 41.532509
441 191 5 0.0 0.460964 18.111373 32.004219
442 191 6 0.0 0.00019 18.171255 31.819554
443 192 5 0.0 36.541308 33.692398 30.310119
444 192 6 0.0 36.708491 33.636832 30.778053
445 193 5 0.0 24.767348 27.696526 33.819061
446 193 6 0.0 24.556365 27.749238 34.269292
447 194 5 0.0 29.415655 14.361123 0.306349
448 194 6 0.0 29.820088 14.437482 0.022441
449 195 5 0.0 20.8675 5.825511 8.495734
450 195 6 0.0 20.451989 5.993343 8.717507
451 196 5 0.0 16.026589 28.779848 9.897552
452 196 6 0.0 15.709617 28.685985 9.522428
453 197 5 0.0 -0.000139 43.974589 36.815936
454 197 6 0.0 0.41249 43.692487 36.828423
455 198 5 0.0 30.596491 34.70905 33.515986
456 198 6 0.0 30.796128 35.052161 33.211979
457 199 5 0.0 34.705841 28.77683 3.184923
458 199 6 0.0 34.238829 28.811853 3.009788
459 200 5 0.0 6.930913 6.442557 44.96483
460 200 6 0.0 6.877099 6.356001 44.475328
461 201 5 0.0 30.266873 20.940321 30.421584
462 201 6 0.0 30.176624 20.784456 30.888019
463 202 5 0.0 29.656952 14.381195 31.89718
464 202 6 0.0 29.472318 14.840166 31.969679
465 203 5 0.0 28.139216 45.81673 33.500502
466 203 6 0.0 27.931711 45.47509 33.800875
467 204 5 0.0 22.955041 46.27869 46.098959
468 204 6 0.0 23.402688 46.12339 46.258627
469 205 5 0.0 32.783533 46.636583 21.244344
470 205 6 0.0 32.828282 46.656636 20.746755
471 206 5 0.0 20.803952 39.556394 21.095536
472 206 6 0.0 20.997997 40.008879 21.008336
473 207 5 0.0 35.594972 22.1075 46.156712
474 207 6 0.0 35.451464 22.006592 46.624924
475 208 5 0.0 43.68592 0.441388 15.885146
476 208 6 0.0 43.570769 0.852344 16.145636
477 209 5 0.0 37.689907 2.132348 23.092671
478 209 6 0.0 37.697579 2.13168 22.59273
479 210 5 0.0 6.867624 44.846209 12.8891
480 210 6 0.0 7.288058 44.58017 12.839512
481 211 5 0.0 18.679679 40.498944 40.4674
482 211 6 0.0 18.741269 40.251045 40.037572
483 212 5 0.0 27.409205 25.071639 8.933696
484 212 6 0.0 27.846178 24.965327 9.152219
485 213 5 0.0 8.440187 43.960059 25.941162
486 213 6 0.0 8.844337 44.044684 25.659202
487 214 5 0.0 34.761395 25.276014 44.090565
488 214 6 0.0 34.583918 24.979424 43.729266
489 215 5 0.0 34.287722 33.530906 33.796442
490 215 6 0.0 34.251975 33.669635 34.275479
491 216 5 0.0 46.942417 46.265197 23.475305
492 216 6 0.0 46.940193 45.889547 23.805277
493 217 5 0.0 15.803261 13.156312 11.359569
494 217 6 0.0 16.133761 13.468509 11.151476
495 218 5 0.0 4.73735 12.26733 10.066786
496 218 6 0.0 4.525862 11.815882 10.105102
497 219 5 0.0 27.412413 11.221632 22.637342
498 219 6 0.0 27.199868 10.837534 22.397979
499 220 5 0.0 7.172268 4.370662 5.528736
500 220 6 0.0 7.197523 4.082824 5.120678
501 221 5 0.0 13.488552 2.748268 21.683829
502 221 6 0.0 13.625924 3.135889 21.968221
503 222 5 0.0 21.441815 19.282838 40.443476
504 222 6 0.0 21.438736 18.784546 40.48465
505 223 5 0.0 28.788219 35.358183 9.840812
506 223 6 0.0 28.791477 35.24769 10.32844
507 224 5 0.0 42.109662 21.585482 46.513247
508 224 6 0.0 42.545502 21.472523 46.730696
509 225 5 0.0 12.492347 43.584392 3.447079
510 225 6 0.0 12.816392 43.636585 3.824267
511 226 5 0.0 20.836317 18.691748 36.502111
512 226 6 0.0 20.392136 18.479679 36.59003
513 227 5 0.0 37.657596 40.319913 24.123929
514 227 6 0.0 37.741197 40.591779 23.712711
515 228 5 0.0 41.595877 36.8078 14.964329
516 228 6 0.0 41.337968 37.223225 14.859904
517 229 5 0.0 26.62747 36.043038 26.95266
518 229 6 0.0 26.857625 35.697614 27.231427
519 230 5 0.0 19.30226 8.552131 24.763581
520 230 6 0.0 18.943752 8.437899 24.434304
521 231 5 0.0 17.558615 40.587475 9.559767
522 231 6 0.0 17.607918 40.812901 10.003335
523 232 5 0.0 46.914122 44.568475 15.356874
524 232 6 0.0 46.742254 44.985004 15.14016
525 233 5 0.0 16.435985 16.595883 23.727763
526 233 6 0.0 16.535457 16.92902 24.087103
527 234 5 0.0 20.81064 3.824499 39.00544
528 234 6 0.0 21.302892 3.845736 39.090514
529 235 5 0.0 39.222845 1.248812 4.090362
530 235 6 0.0 39.569625 1.245175 4.450543
531 236 5 0.0 33.691317 16.976476 21.91844
532 236 6 0.0 33.907115 17.171087 21.511552
533 237 5 0.0 25.015163 0.189446 34.119764
534 237 6 0.0 25.030905 0.356073 34.590919
535 238 5 0.0 46.317212 25.68515 34.912079
536 238 6 0.0 46.259222 26.130954 34.693229
537 239 5 0.0 39.765507 9.456587 20.485231
538 239 6 0.0 39.731117 9.46112 20.984027
539 240 5 0.0 3.947977 0.027746 23.643535
540 240 6 0.0 4.017989 2.4e-05 23.149238
541 241 5 0.0 46.438592 22.598923 8.78553
542 241 6 0.0 46.378405 22.881873 9.193349
543 242 5 0.0 35.496949 15.325934 0.0566
544 242 6 0.0 35.648319 14.988346 0.392935
545 243 5 0.0 20.008855 29.408462 7.117104
546 243 6 0.0 20.378098 29.159259 7.344167
547 244 5 0.0 37.815077 28.714698 39.902737
548 244 6 0.0 37.474206 28.883233 39.578078
549 245 5 0.0 38.156429 23.976848 42.699659
550 245 6 0.0 38.477446 24.226742 42.408969
551 246 5 0.0 20.328236 1.798528 29.699712
552 246 6 0.0 20.201206 1.846701 30.180901
553 247 5 0.0 37.014023 9.939341 32.394174
554 247 6 0.0 37.096678 10.333149 32.097385
555 248 5 0.0 19.865624 32.841972 24.119026
556 248 6 0.0 20.081957 32.948739 23.681074
557 249 5 0.0 20.642086 24.90442 32.084887
558 249 6 0.0 20.54549 24.738266 32.546474
559 250 5 0.0 11.519809 23.539787 46.730938
560 250 6 0.0 11.93347 23.620531 46.999944
561 251 5 0.0 28.560311 4.904583 8.347703
562 251 6 0.0 28.531075 4.965815 8.843078
563 252 5 0.0 41.002144 25.482435 38.407142
564 252 6 0.0 40.750324 25.846718 38.639274
565 253 5 0.0 1.511108 24.265042 7.769945
566 253 6 0.0 1.802624 23.943435 7.521777
567 254 5 0.0 25.188087 3.425414 18.068199
568 254 6 0.0 25.086143 3.415145 18.557589
569 255 5 0.0 2.465223 8.203971 35.997088
570 255 6 0.0 2.356337 8.024909 35.543126
571 256 5 0.0 3.699126 26.131586 10.88787
572 256 6 0.0 3.780465 26.18662 10.39761
573 257 5 0.0 31.702029 29.389998 6.514906
574 257 6 0.0 32.104109 29.592544 6.297405
575 258 5 0.0 11.310699 7.02972 12.025299
576 258 6 0.0 11.806112 7.011775 12.090444
577 259 5 0.0 39.971332 30.762699 13.149722
578 259 6 0.0 39.898953 30.422999 13.509395
579 260 5 0.0 45.236928 9.66502 25.787563
580 260 6 0.0 45.548576 9.298565 25.65123
581 261 5 0.0 38.413596 33.187656 8.702003
582 261 6 0.0 37.995051 32.939601 8.586727
583 262 5 0.0 11.048664 8.818616 3.17792
584 262 6 0.0 10.90619 8.842749 3.656584
585 263 5 0.0 35.95868 42.451658 29.987259
586 263 6 0.0 36.166852 42.890717 30.105122
587 264 5 0.0 11.33968 36.936475 24.135882
588 264 6 0.0 11.298932 36.652468 23.726396
589 265 5 0.0 31.656488 37.894936 24.340064
590 265 6 0.0 31.513177 37.486526 24.59039
591 266 5 0.0 0.025021 35.127801 8.420832
592 266 6 0.0 0.212475 35.187849 8.880457
593 267 5 0.0 39.268618 19.66569 4.249916
594 267 6 0.0 39.270246 19.673275 3.749976
595 268 5 0.0 26.467018 11.146132 5.342978
596 268 6 0.0 26.616212 11.588577 5.521818
597 269 5 0.0 10.346237 15.518543 19.573153
598 269 6 0.0 10.343369 15.522963 20.073125
599 270 5 0.0 44.529017 19.20433 10.378984
600 270 6 0.0 44.319413 19.358071 10.806102
601 271 5 0.0 10.859472 19.646983 43.086136
602 271 6 0.0 10.875628 19.557659 43.577827
603 272 5 0.0 28.637686 30.908622 32.61924
604 272 6 0.0 29.019654 30.932308 32.941015
605 273 5 0.0 29.945228 15.133354 15.239105
606 273 6 0.0 30.224914 14.718978 15.247383
607 274 5 0.0 24.845957 31.948917 23.474044
608 274 6 0.0 25.190195 31.818788 23.812521
609 275 5 0.0 46.904502 22.723029 13.032111
610 275 6 0.0 46.995313 22.240177 12.939334
611 276 5 0.0 22.312536 7.927558 15.93155
612 276 6 0.0 21.960572 8.243222 15.768833
613 277 5 0.0 2.690608 29.737142 0.494201
614 277 6 0.0 2.636213 29.773206 -0.001521
615 278 5 0.0 31.770137 44.44773 34.96111
616 278 6 0.0 31.492306 44.211329 34.619167
617 279 5 0.0 45.721272 15.943387 32.807112
618 279 6 0.0 45.322011 16.038017 33.092831
619 280 5 0.0 24.759769 19.750875 37.36233
620 280 6 0.0 25.070291 19.626708 37.734026
621 281 5 0.0 4.513006 21.282454 17.350062
622 281 6 0.0 4.34046 21.140381 17.797324
623 282 5 0.0 42.440126 25.730574 34.369181
624 282 6 0.0 42.412565 25.853145 33.885222
625 283 5 0.0 5.898418 25.369065 23.446061
626 283 6 0.0 5.503224 25.067512 23.392332
627 284 5 0.0 5.130163 14.055583 14.685757
628 284 6 0.0 4.983668 14.486233 14.4782
629 285 5 0.0 38.164983 1.965758 26.966745
630 285 6 0.0 37.685467 2.106707 26.952687
631 286 5 0.0 44.551475 13.455679 19.583469
632 286 6 0.0 44.874939 13.605726 19.232959
633 287 5 0.0 7.700978 10.150869 -0.000716
634 287 6 0.0 7.282693 10.385318 0.140957
635 288 5 0.0 30.43384 22.561952 25.466977
636 288 6 0.0 30.443999 22.597764 25.96559
637 289 5 0.0 20.017618 19.124979 45.379214
638 289 6 0.0 20.102653 18.939282 44.92283
639 290 5 0.0 45.539932 25.777322 6.798588
640 290 6 0.0 45.468295 25.724575 6.306566
641 291 5 0.0 37.735144 43.11642 4.229718
642 291 6 0.0 38.137748 43.305757 4.001548
643 292 5 0.0 32.955057 31.659888 19.709447
644 292 6 0.0 33.012908 32.113866 19.910834
645 293 5 0.0 36.059482 46.9772 23.276754
646 293 6 0.0 36.333542 46.623192 23.054112
647 294 5 0.0 18.723955 32.926911 27.919092
648 294 6 0.0 18.242385 33.027973 28.007847
649 295 5 0.0 31.637682 16.718919 18.324184
650 295 6 0.0 31.896227 16.291828 18.351535
651 296 5 0.0 40.816179 38.499799 11.263611
652 296 6 0.0 40.399551 38.71773 11.433691
653 297 5 0.0 34.824165 6.77293 28.792034
654 297 6 0.0 34.877011 7.151809 29.113994
655 298 5 0.0 41.654609 42.292167 7.201608
656 298 6 0.0 41.214049 42.319508 6.966748
657 299 5 0.0 38.590994 34.186665 0.287057
658 299 6 0.0 38.841072 34.075118 0.705409
659 300 5 0.0 42.423283 7.053823 26.243646
660 300 6 0.0 42.052466 7.048851 26.579012
661 301 5 0.0 5.100048 9.253861 22.247735
662 301 6 0.0 5.54641 9.310638 22.029704
663 302 5 0.0 46.98582 11.33449 41.016794