LAMMPS datafile

1024 atoms
4 atom types
768 bonds
3 bond types
0 angles
0 angle types

-1.3437133729457855 20.155700594186783  xlo xhi
-1.3437133729457855 20.155700594186783  ylo yhi
-1.3437133729457855 20.155700594186783  zlo zhi

Masses

1 39.748
2 0.2
3 39.748
4 0.2

Atoms

1 1 1 0.0 2.687426745891571 0.0 0.0
2 1 2 0.0 2.6933156400888625 0.044229889505898415 0.045607827974203125
3 1 3 0.0 2.687426745891571 0.0 0.5
4 1 4 0.0 2.7179787227892707 0.017692052124961718 0.5043552405388262
5 2 1 0.0 8.062280237674713 0.0 0.0
6 2 2 0.0 8.072334879110723 0.002186567166853787 0.03144635652972682
7 2 3 0.0 8.062280237674713 0.0 0.5
8 2 4 0.0 8.088422406654772 0.008257030000221178 0.5445428173502029
9 3 1 0.0 13.437133729457855 0.0 0.0
10 3 2 0.0 13.47044186284256 0.02482193169465178 0.035587789873111154
11 3 3 0.0 13.437133729457855 0.0 0.5
12 3 4 0.0 13.481429794765402 0.04393205464485119 0.512118584329456
13 4 1 0.0 18.811987221240997 0.0 0.0
14 4 2 0.0 18.828094890939195 0.030158456166671063 0.00506674538900096
15 4 3 0.0 18.811987221240997 0.0 0.5
16 4 4 0.0 18.818550691023365 0.03794679842843256 0.541939376251968
17 5 1 0.0 0.0 2.687426745891571 0.0
18 5 2 0.0 0.008304545605202085 2.7006015581806766 0.018912229885312076
19 5 3 0.0 0.0 2.687426745891571 0.5
20 5 4 0.0 0.03392019140575085 2.693285062456586 0.502281242583048
21 6 1 0.0 5.374853491783142 2.687426745891571 0.0
22 6 2 0.0 5.379531959147329 2.7322248206271573 0.03138557708095143
23 6 3 0.0 5.374853491783142 2.687426745891571 0.5
24 6 4 0.0 5.405560946573612 2.6948416900189187 0.5267697803687994
25 7 1 0.0 10.749706983566284 2.687426745891571 0.0
26 7 2 0.0 10.768161629270566 2.727752024101611 0.046135535559082515
27 7 3 0.0 10.749706983566284 2.687426745891571 0.5
28 7 4 0.0 10.750996514569968 2.692159181719556 0.5415360827287152
29 8 1 0.0 16.124560475349426 2.687426745891571 0.0
30 8 2 0.0 16.162067428452684 2.710493896639095 0.02155043580798917
31 8 3 0.0 16.124560475349426 2.687426745891571 0.5
32 8 4 0.0 16.13307973936698 2.7075224386391463 0.5285346129696165
33 9 1 0.0 2.687426745891571 5.374853491783142 0.0
34 9 2 0.0 2.7047326824580837 5.381719652542754 0.010060915961259366
35 9 3 0.0 2.687426745891571 5.374853491783142 0.5
36 9 4 0.0 2.695940051433216 5.4200106906245376 0.5259266825778502
37 10 1 0.0 8.062280237674713 5.374853491783142 0.0
38 10 2 0.0 8.09782007899425 5.392185062858534 0.03226177835703297
39 10 3 0.0 8.062280237674713 5.374853491783142 0.5
40 10 4 0.0 8.075477245344597 5.374964832523572 0.5486500153970731
41 11 1 0.0 13.437133729457855 5.374853491783142 0.0
42 11 2 0.0 13.463503922894922 5.421085124301518 0.013228427849674686
43 11 3 0.0 13.437133729457855 5.374853491783142 0.5
44 11 4 0.0 13.479461524584547 5.398544444646598 0.5475312151417543
45 12 1 0.0 18.811987221240997 5.374853491783142 0.0
46 12 2 0.0 18.81612277322511 5.397315714792902 0.03906059854282167
47 12 3 0.0 18.811987221240997 5.374853491783142 0.5
48 12 4 0.0 18.81975372984264 5.391939362042918 0.5441982157717928
49 13 1 0.0 0.0 8.062280237674713 0.0
50 13 2 0.0 0.011002896182081646 8.097330784800818 0.015201879225554205
51 13 3 0.0 0.0 8.062280237674713 0.5
52 13 4 0.0 0.004048441282116766 8.099072348303693 0.5305538389940294
53 14 1 0.0 5.374853491783142 8.062280237674713 0.0
54 14 2 0.0 5.393394634882285 8.109418745780722 0.01755988851900673
55 14 3 0.0 5.374853491783142 8.062280237674713 0.5
56 14 4 0.0 5.401944167828832 8.072773171075841 0.5493804923776957
57 15 1 0.0 10.749706983566284 8.062280237674713 0.0
58 15 2 0.0 10.759709974452681 8.075737397316685 0.03463681501913035
59 15 3 0.0 10.749706983566284 8.062280237674713 0.5
60 15 4 0.0 10.769948943516882 8.09807349050279 0.5005569925878071
61 16 1 0.0 16.124560475349426 8.062280237674713 0.0
62 16 2 0.0 16.173003364497262 8.100018076105284 0.02127020934550893
63 16 3 0.0 16.124560475349426 8.062280237674713 0.5
64 16 4 0.0 16.140193467940794 8.070127210790979 0.5102669803301945
65 17 1 0.0 2.687426745891571 10.749706983566284 0.0
66 17 2 0.0 2.7009280775046283 10.775352686402025 0.02152918362662669
67 17 3 0.0 2.687426745891571 10.749706983566284 0.5
68 17 4 0.0 2.726028737743681 10.77744671204428 0.5289701035555529
69 18 1 0.0 8.062280237674713 10.749706983566284 0.0
70 18 2 0.0 8.066179693100722 10.781666192005499 0.01683404904979185
71 18 3 0.0 8.062280237674713 10.749706983566284 0.5
72 18 4 0.0 8.072302050432716 10.781195396701715 0.5284123774833708
73 19 1 0.0 13.437133729457855 10.749706983566284 0.0
74 19 2 0.0 13.48157390160862 10.783114095803489 0.01325127798419784
75 19 3 0.0 13.437133729457855 10.749706983566284 0.5
76 19 4 0.0 13.46791412240862 10.762545356536043 0.5319799438846267
77 20 1 0.0 18.811987221240997 10.749706983566284 0.0
78 20 2 0.0 18.830355644450503 10.75014629476184 0.029667067197627975
79 20 3 0.0 18.811987221240997 10.749706983566284 0.5
80 20 4 0.0 18.85570752658434 10.787493022546466 0.5199664843516192
81 21 1 0.0 0.0 13.437133729457855 0.0
82 21 2 0.0 0.018851098045642545 13.450505443400573 0.014485804935993364
83 21 3 0.0 0.0 13.437133729457855 0.5
84 21 4 0.0 0.02021545011435079 13.464950478849357 0.5329761354700695
85 22 1 0.0 5.374853491783142 13.437133729457855 0.0
86 22 2 0.0 5.391922893020477 13.474243808338633 0.025100868883924557
87 22 3 0.0 5.374853491783142 13.437133729457855 0.5
88 22 4 0.0 5.392999549566688 13.450422670006022 0.5045936035977744
89 23 1 0.0 10.749706983566284 13.437133729457855 0.0
90 23 2 0.0 10.78061694369982 13.441899430002222 0.007402526516401376
91 23 3 0.0 10.749706983566284 13.437133729457855 0.5
92 23 4 0.0 10.774758687741901 13.46078544904587 0.5314838926595924
93 24 1 0.0 16.124560475349426 13.437133729457855 0.0
94 24 2 0.0 16.154823361261855 13.469910316310253 0.04241229513176936
95 24 3 0.0 16.124560475349426 13.437133729457855 0.5
96 24 4 0.0 16.172946720949483 13.45286265974864 0.5210109043924696
97 25 1 0.0 2.687426745891571 16.124560475349426 0.0
98 25 2 0.0 2.718612674813213 16.12683188178158 0.021953285655500546
99 25 3 0.0 2.687426745891571 16.124560475349426 0.5
100 25 4 0.0 2.7369072291099394 16.15496722813295 0.5055780866395676
101 26 1 0.0 8.062280237674713 16.124560475349426 0.0
102 26 2 0.0 8.07662097652731 16.17276957950379 0.02899522187137035
103 26 3 0.0 8.062280237674713 16.124560475349426 0.5
104 26 4 0.0 8.09087983732252 16.171868277188135 0.5327228839723771
105 27 1 0.0 13.437133729457855 16.124560475349426 0.0
106 27 2 0.0 13.470538546994192 16.163198062196585 0.03518451488532507
107 27 3 0.0 13.437133729457855 16.124560475349426 0.5
108 27 4 0.0 13.485603379640974 16.12782573610834 0.533463717752735
109 28 1 0.0 18.811987221240997 16.124560475349426 0.0
110 28 2 0.0 18.849737551237375 16.12773318151586 0.0465058858049394
111 28 3 0.0 18.811987221240997 16.124560475349426 0.5
112 28 4 0.0 18.81416628499278 16.169328193755263 0.5341373903248605
113 29 1 0.0 0.0 18.811987221240997 0.0
114 29 2 0.0 0.04433720050655954 18.83138559638577 0.01038359876744508
115 29 3 0.0 0.0 18.811987221240997 0.5
116 29 4 0.0 0.03934975728358905 18.82438601540556 0.5026243577801325
117 30 1 0.0 5.374853491783142 18.811987221240997 0.0
118 30 2 0.0 5.415521067094019 18.845466464762445 0.003449461564823642
119 30 3 0.0 5.374853491783142 18.811987221240997 0.5
120 30 4 0.0 5.378941033676683 18.825064262189397 0.5322757825385728
121 31 1 0.0 10.749706983566284 18.811987221240997 0.0
122 31 2 0.0 10.793057255799958 18.859779122367424 0.03555631760423039
123 31 3 0.0 10.749706983566284 18.811987221240997 0.5
124 31 4 0.0 10.771978109141392 18.838852076323636 0.5468564425067338
125 32 1 0.0 16.124560475349426 18.811987221240997 0.0
126 32 2 0.0 16.155772527349907 18.84513357437144 0.011691704937465464
127 32 3 0.0 16.124560475349426 18.811987221240997 0.5
128 32 4 0.0 16.12604129669675 18.84863366628223 0.507715362211724
129 33 1 0.0 0.0 0.0 2.687426745891571
130 33 2 0.0 0.04187565507427133 0.006562584982331566 2.7087676662049947
131 33 3 0.0 0.0 0.0 3.187426745891571
132 33 4 0.0 0.010983767716897158 0.035709145052051354 3.187587305404879
133 34 1 0.0 5.374853491783142 0.0 2.687426745891571
134 34 2 0.0 5.380886239547618 0.0451258007659489 2.7279064482271322
135 34 3 0.0 5.374853491783142 0.0 3.187426745891571
136 34 4 0.0 5.41859672245971 0.013138629829082267 3.2163620168195535
137 35 1 0.0 10.749706983566284 0.0 2.687426745891571
138 35 2 0.0 10.78374454154775 0.036642546923067586 2.7049680751760006
139 35 3 0.0 10.749706983566284 0.0 3.187426745891571
140 35 4 0.0 10.79241430603475 0.040794572987992786 3.233971686463481
141 36 1 0.0 16.124560475349426 0.0 2.687426745891571
142 36 2 0.0 16.149172311046424 0.003553035315452957 2.732545710347414
143 36 3 0.0 16.124560475349426 0.0 3.187426745891571
144 36 4 0.0 16.16800061302082 0.01920289272314642 3.2311332636248116
145 37 1 0.0 2.687426745891571 2.687426745891571 2.687426745891571
146 37 2 0.0 2.7300312321923754 2.6993189519328573 2.7163828671254993
147 37 3 0.0 2.687426745891571 2.687426745891571 3.187426745891571
148 37 4 0.0 2.7137311032702027 2.717949572092682 3.2174237289788916
149 38 1 0.0 8.062280237674713 2.687426745891571 2.687426745891571
150 38 2 0.0 8.104171610325546 2.706091149493609 2.7197733247431928
151 38 3 0.0 8.062280237674713 2.687426745891571 3.187426745891571
152 38 4 0.0 8.085176095225938 2.69298965353523 3.2011075869399748
153 39 1 0.0 13.437133729457855 2.687426745891571 2.687426745891571
154 39 2 0.0 13.485844995469305 2.6917117415249754 2.72267175496331
155 39 3 0.0 13.437133729457855 2.687426745891571 3.187426745891571
156 39 4 0.0 13.471120173223035 2.726531873774403 3.2244404572929994
157 40 1 0.0 18.811987221240997 2.687426745891571 2.687426745891571
158 40 2 0.0 18.817849879003425 2.710543328358262 2.714791957325025
159 40 3 0.0 18.811987221240997 2.687426745891571 3.187426745891571
160 40 4 0.0 18.861391962583795 2.7036251095552597 3.233865883767942
161 41 1 0.0 0.0 5.374853491783142 2.687426745891571
162 41 2 0.0 0.040815440212569366 5.4227515634954875 2.7074432489555926
163 41 3 0.0 0.0 5.374853491783142 3.187426745891571
164 41 4 0.0 0.007193475431630287 5.4221193034450135 3.231868753516126
165 42 1 0.0 5.374853491783142 5.374853491783142 2.687426745891571
166 42 2 0.0 5.41189775760002 5.4045180119829395 2.699525225921169
167 42 3 0.0 5.374853491783142 5.374853491783142 3.187426745891571
168 42 4 0.0 5.384415685450632 5.412355562802408 3.213294471704827
169 43 1 0.0 10.749706983566284 5.374853491783142 2.687426745891571
170 43 2 0.0 10.767512284821802 5.405621509754879 2.7236450485264174
171 43 3 0.0 10.749706983566284 5.374853491783142 3.187426745891571
172 43 4 0.0 10.78715637848399 5.422839069760679 3.1898126082270237
173 44 1 0.0 16.124560475349426 5.374853491783142 2.687426745891571
174 44 2 0.0 16.12679213264479 5.380185688947393 2.694488135160461
175 44 3 0.0 16.124560475349426 5.374853491783142 3.187426745891571
176 44 4 0.0 16.159039269448904 5.386320727412033 3.2210723276374753
177 45 1 0.0 2.687426745891571 8.062280237674713 2.687426745891571
178 45 2 0.0 2.7308980426958507 8.093609783614877 2.6880254596037365
179 45 3 0.0 2.687426745891571 8.062280237674713 3.187426745891571
180 45 4 0.0 2.725167938218751 8.089685924650276 3.222619146780801
181 46 1 0.0 8.062280237674713 8.062280237674713 2.687426745891571
182 46 2 0.0 8.096618628632804 8.090599569661215 2.7207972989790163
183 46 3 0.0 8.062280237674713 8.062280237674713 3.187426745891571
184 46 4 0.0 8.065306604339796 8.071468110004561 3.2032093883597805
185 47 1 0.0 13.437133729457855 8.062280237674713 2.687426745891571
186 47 2 0.0 13.477502282807647 8.107168453807255 2.6942119519232235
187 47 3 0.0 13.437133729457855 8.062280237674713 3.187426745891571
188 47 4 0.0 13.480907794672857 8.072938725652286 3.2319788097275013
189 48 1 0.0 18.811987221240997 8.062280237674713 2.687426745891571
190 48 2 0.0 18.819328031850414 8.08600742021721 2.6946779432613184
191 48 3 0.0 18.811987221240997 8.062280237674713 3.187426745891571
192 48 4 0.0 18.821525609701446 8.066089857916456 3.226901031258973
193 49 1 0.0 0.0 10.749706983566284 2.687426745891571
194 49 2 0.0 0.04200471537121341 10.76687822418094 2.6941649404685846
195 49 3 0.0 0.0 10.749706983566284 3.187426745891571
196 49 4 0.0 0.04662326594021437 10.773876533761928 3.2022695105404897
197 50 1 0.0 5.374853491783142 10.749706983566284 2.687426745891571
198 50 2 0.0 5.387347912302929 10.781758535993585 2.7306341177120115
199 50 3 0.0 5.374853491783142 10.749706983566284 3.187426745891571
200 50 4 0.0 5.4171527944878965 10.799534468653814 3.192075496160959
201 51 1 0.0 10.749706983566284 10.749706983566284 2.687426745891571
202 51 2 0.0 10.77276781976426 10.753238193063899 2.7095440576316245
203 51 3 0.0 10.749706983566284 10.749706983566284 3.187426745891571
204 51 4 0.0 10.795279811644052 10.77027487168115 3.2102023469973076
205 52 1 0.0 16.124560475349426 10.749706983566284 2.687426745891571
206 52 2 0.0 16.167493654923863 10.758215693127523 2.735684586312233
207 52 3 0.0 16.124560475349426 10.749706983566284 3.187426745891571
208 52 4 0.0 16.158970823012847 10.757515972914012 3.2073520189953117
209 53 1 0.0 2.687426745891571 13.437133729457855 2.687426745891571
210 53 2 0.0 2.7055533815722645 13.486822042449049 2.7308962664935463
211 53 3 0.0 2.687426745891571 13.437133729457855 3.187426745891571
212 53 4 0.0 2.6933090918272744 13.44957931797228 3.208509849501244
213 54 1 0.0 8.062280237674713 13.437133729457855 2.687426745891571
214 54 2 0.0 8.074307688323142 13.482322442966487 2.68889512788463
215 54 3 0.0 8.062280237674713 13.437133729457855 3.187426745891571
216 54 4 0.0 8.108639443843433 13.483167614194521 3.1951977196723984
217 55 1 0.0 13.437133729457855 13.437133729457855 2.687426745891571
218 55 2 0.0 13.47878504550746 13.473426787159246 2.6919791308374914
219 55 3 0.0 13.437133729457855 13.437133729457855 3.187426745891571
220 55 4 0.0 13.462216357645321 13.462983418332751 3.1903523445555635
221 56 1 0.0 18.811987221240997 13.437133729457855 2.687426745891571
222 56 2 0.0 18.855273134175548 13.46068710432119 2.7010098711836426
223 56 3 0.0 18.811987221240997 13.437133729457855 3.187426745891571
224 56 4 0.0 18.83525760524509 13.453196279130305 3.1925108926715384
225 57 1 0.0 0.0 16.124560475349426 2.687426745891571
226 57 2 0.0 0.02653037654059382 16.135166744846863 2.7337387225997203
227 57 3 0.0 0.0 16.124560475349426 3.187426745891571
228 57 4 0.0 0.023963256257817374 16.172459424704165 3.2148585320642327
229 58 1 0.0 5.374853491783142 16.124560475349426 2.687426745891571
230 58 2 0.0 5.375248707145912 16.164719535728462 2.721409933962625
231 58 3 0.0 5.374853491783142 16.124560475349426 3.187426745891571
232 58 4 0.0 5.398443738543102 16.15717890009849 3.187431361784252
233 59 1 0.0 10.749706983566284 16.124560475349426 2.687426745891571
234 59 2 0.0 10.762268884776987 16.153797894393296 2.7268610759269984
235 59 3 0.0 10.749706983566284 16.124560475349426 3.187426745891571
236 59 4 0.0 10.796051328819342 16.160674244142403 3.23434704249431
237 60 1 0.0 16.124560475349426 16.124560475349426 2.687426745891571
238 60 2 0.0 16.136599850866915 16.134886407857056 2.72728432069059
239 60 3 0.0 16.124560475349426 16.124560475349426 3.187426745891571
240 60 4 0.0 16.154618578116423 16.160256407499155 3.236937733160197
241 61 1 0.0 2.687426745891571 18.811987221240997 2.687426745891571
242 61 2 0.0 2.728196193360727 18.84164292444668 2.708060838070365
243 61 3 0.0 2.687426745891571 18.811987221240997 3.187426745891571
244 61 4 0.0 2.7088263677121773 18.843970915880142 3.2294504771482164
245 62 1 0.0 8.062280237674713 18.811987221240997 2.687426745891571
246 62 2 0.0 8.070825224604972 18.853350846855637 2.7038506628565
247 62 3 0.0 8.062280237674713 18.811987221240997 3.187426745891571
248 62 4 0.0 8.087216408675346 18.846158094138204 3.215028424388762
249 63 1 0.0 13.437133729457855 18.811987221240997 2.687426745891571
250 63 2 0.0 13.46104397103421 18.84330004628327 2.702115585775575
251 63 3 0.0 13.437133729457855 18.811987221240997 3.187426745891571
252 63 4 0.0 13.463967609030064 18.838290936305736 3.217203641723389
253 64 1 0.0 18.811987221240997 18.811987221240997 2.687426745891571
254 64 2 0.0 18.84772504377273 18.826003037397605 2.6970027823178713
255 64 3 0.0 18.811987221240997 18.811987221240997 3.187426745891571
256 64 4 0.0 18.82566439415073 18.85709328805556 3.224377404340433
257 65 1 0.0 2.687426745891571 0.0 5.374853491783142
258 65 2 0.0 2.710980962342718 0.03314618829051382 5.386091915186152
259 65 3 0.0 2.687426745891571 0.0 5.874853491783142
260 65 4 0.0 2.693770723024963 0.04486627988301003 5.894150780754642
261 66 1 0.0 8.062280237674713 0.0 5.374853491783142
262 66 2 0.0 8.0689977167247 0.023791756501864922 5.4155729611868155
263 66 3 0.0 8.062280237674713 0.0 5.874853491783142
264 66 4 0.0 8.107486498944283 0.03413637920819085 5.903914321951055
265 67 1 0.0 13.437133729457855 0.0 5.374853491783142
266 67 2 0.0 13.442054064281496 0.03907636843209845 5.384646639820314
267 67 3 0.0 13.437133729457855 0.0 5.874853491783142
268 67 4 0.0 13.444649024626434 0.033481281620322344 5.8848314624028815
269 68 1 0.0 18.811987221240997 0.0 5.374853491783142
270 68 2 0.0 18.849325607777097 0.03300190827159626 5.376579490351017
271 68 3 0.0 18.811987221240997 0.0 5.874853491783142
272 68 4 0.0 18.856094997202543 0.047031226992524024 5.888551813562234
273 69 1 0.0 0.0 2.687426745891571 5.374853491783142
274 69 2 0.0 0.007369908427369626 2.7201533451693094 5.407486424829935
275 69 3 0.0 0.0 2.687426745891571 5.874853491783142
276 69 4 0.0 0.02854266932262844 2.6955021191769495 5.911989017684392
277 70 1 0.0 5.374853491783142 2.687426745891571 5.374853491783142
278 70 2 0.0 5.408623579318313 2.730699938694085 5.398847793466773
279 70 3 0.0 5.374853491783142 2.687426745891571 5.874853491783142
280 70 4 0.0 5.402498811813409 2.7372922921904452 5.9219774970160435
281 71 1 0.0 10.749706983566284 2.687426745891571 5.374853491783142
282 71 2 0.0 10.765138651860685 2.6962311587146175 5.393462548403703
283 71 3 0.0 10.749706983566284 2.687426745891571 5.874853491783142
284 71 4 0.0 10.778768880419449 2.7293840347243243 5.894337527570732
285 72 1 0.0 16.124560475349426 2.687426745891571 5.374853491783142
286 72 2 0.0 16.150099599750178 2.704546965753973 5.402228399301809
287 72 3 0.0 16.124560475349426 2.687426745891571 5.874853491783142
288 72 4 0.0 16.15980176486536 2.688106673302647 5.909080252582533
289 73 1 0.0 2.687426745891571 5.374853491783142 5.374853491783142
290 73 2 0.0 2.7367636172525693 5.3872128181765815 5.383460252694593
291 73 3 0.0 2.687426745891571 5.374853491783142 5.874853491783142
292 73 4 0.0 2.689333988795772 5.386457716700974 5.89975950194662
293 74 1 0.0 8.062280237674713 5.374853491783142 5.374853491783142
294 74 2 0.0 8.08107611098822 5.380586472552292 5.395096371206039
295 74 3 0.0 8.062280237674713 5.374853491783142 5.874853491783142
296 74 4 0.0 8.083196790638532 5.387030988492295 5.875488627747369
297 75 1 0.0 13.437133729457855 5.374853491783142 5.374853491783142
298 75 2 0.0 13.466939243098917 5.388914278826262 5.375208474463464
299 75 3 0.0 13.437133729457855 5.374853491783142 5.874853491783142
300 75 4 0.0 13.477772532328181 5.394267376835194 5.891409783659772
301 76 1 0.0 18.811987221240997 5.374853491783142 5.374853491783142
302 76 2 0.0 18.813543931607356 5.4205512784771 5.395720972624288
303 76 3 0.0 18.811987221240997 5.374853491783142 5.874853491783142
304 76 4 0.0 18.823088270123367 5.414610848739797 5.889874451110101
305 77 1 0.0 0.0 8.062280237674713 5.374853491783142
306 77 2 0.0 0.0011075075444049898 8.069595440770286 5.387303400538795
307 77 3 0.0 0.0 8.062280237674713 5.874853491783142
308 77 4 0.0 0.0019683118287999123 8.066301649682721 5.919626867173235
309 78 1 0.0 5.374853491783142 8.062280237674713 5.374853491783142
310 78 2 0.0 5.389963298138677 8.092115797853628 5.408452736656601
311 78 3 0.0 5.374853491783142 8.062280237674713 5.874853491783142
312 78 4 0.0 5.397039905580849 8.111959391429798 5.8988338689450055
313 79 1 0.0 10.749706983566284 8.062280237674713 5.374853491783142
314 79 2 0.0 10.754204007231763 8.089182817479754 5.405453785647521
315 79 3 0.0 10.749706983566284 8.062280237674713 5.874853491783142
316 79 4 0.0 10.770796231331078 8.06275007822673 5.89779508215462
317 80 1 0.0 16.124560475349426 8.062280237674713 5.374853491783142
318 80 2 0.0 16.153845690961383 8.075983337375865 5.408985328781898
319 80 3 0.0 16.124560475349426 8.062280237674713 5.874853491783142
320 80 4 0.0 16.151194439883096 8.062947036705873 5.907727339312176
321 81 1 0.0 2.687426745891571 10.749706983566284 5.374853491783142
322 81 2 0.0 2.7210534335756162 10.765188995577882 5.414986498275933
323 81 3 0.0 2.687426745891571 10.749706983566284 5.874853491783142
324 81 4 0.0 2.7023146140633156 10.788505332333958 5.884065194042307
325 82 1 0.0 8.062280237674713 10.749706983566284 5.374853491783142
326 82 2 0.0 8.107453675692025 10.796034994541262 5.3863596720129765
327 82 3 0.0 8.062280237674713 10.749706983566284 5.874853491783142
328 82 4 0.0 8.089340827551974 10.77941153671612 5.8853160071721025
329 83 1 0.0 13.437133729457855 10.749706983566284 5.374853491783142
330 83 2 0.0 13.440035634441333 10.79245001413244 5.400394793844798
331 83 3 0.0 13.437133729457855 10.749706983566284 5.874853491783142
332 83 4 0.0 13.458498753705255 10.770457757458308 5.881762648226457
333 84 1 0.0 18.811987221240997 10.749706983566284 5.374853491783142
334 84 2 0.0 18.85867964836687 10.75274402702157 5.386754283814154
335 84 3 0.0 18.811987221240997 10.749706983566284 5.874853491783142
336 84 4 0.0 18.825158919141977 10.77074605514995 5.887167175471765
337 85 1 0.0 0.0 13.437133729457855 5.374853491783142
338 85 2 0.0 0.009977281341244454 13.477551778618881 5.382246719981404
339 85 3 0.0 0.0 13.437133729457855 5.874853491783142
340 85 4 0.0 0.023622148744845212 13.479662161221157 5.899039455881757
341 86 1 0.0 5.374853491783142 13.437133729457855 5.374853491783142
342 86 2 0.0 5.411909257843444 13.440202319515103 5.381936953196951
343 86 3 0.0 5.374853491783142 13.437133729457855 5.874853491783142
344 86 4 0.0 5.409246484595622 13.482387902244577 5.888795650257162
345 87 1 0.0 10.749706983566284 13.437133729457855 5.374853491783142
346 87 2 0.0 10.757426557993846 13.450758012302446 5.411573142713588
347 87 3 0.0 10.749706983566284 13.437133729457855 5.874853491783142
348 87 4 0.0 10.786298638497314 13.43787944234754 5.902899790432938
349 88 1 0.0 16.124560475349426 13.437133729457855 5.374853491783142
350 88 2 0.0 16.149843690962086 13.473960483090133 5.415130961434274
351 88 3 0.0 16.124560475349426 13.437133729457855 5.874853491783142
352 88 4 0.0 16.141748580219136 13.45659048378529 5.887963921500584
353 89 1 0.0 2.687426745891571 16.124560475349426 5.374853491783142
354 89 2 0.0 2.712607997226156 16.167317773824344 5.422833560669411
355 89 3 0.0 2.687426745891571 16.124560475349426 5.874853491783142
356 89 4 0.0 2.7116328844068107 16.17246897858114 5.895413086606897
357 90 1 0.0 8.062280237674713 16.124560475349426 5.374853491783142
358 90 2 0.0 8.09121379767344 16.154734373233353 5.423858109168211
359 90 3 0.0 8.062280237674713 16.124560475349426 5.874853491783142
360 90 4 0.0 8.082314397973752 16.15052495280722 5.891213545609827
361 91 1 0.0 13.437133729457855 16.124560475349426 5.374853491783142
362 91 2 0.0 13.47340301797543 16.152838539452475 5.387982015001026
363 91 3 0.0 13.437133729457855 16.124560475349426 5.874853491783142
364 91 4 0.0 13.47468792413002 16.16188033372812 5.877132215306664
365 92 1 0.0 18.811987221240997 16.124560475349426 5.374853491783142
366 92 2 0.0 18.83702865598304 16.131867818683276 5.382480431753142
367 92 3 0.0 18.811987221240997 16.124560475349426 5.874853491783142
368 92 4 0.0 18.854171903630295 16.165857025825098 5.924307291782529
369 93 1 0.0 0.0 18.811987221240997 5.374853491783142
370 93 2 0.0 0.0074750202130064785 18.849993471352864 5.389944612043041
371 93 3 0.0 0.0 18.811987221240997 5.874853491783142
372 93 4 0.0 0.018034001446087074 18.852232432748444 5.91078992851147
373 94 1 0.0 5.374853491783142 18.811987221240997 5.374853491783142
374 94 2 0.0 5.385055549857868 18.835215959753764 5.424072638040922
375 94 3 0.0 5.374853491783142 18.811987221240997 5.874853491783142
376 94 4 0.0 5.400659291395131 18.844076192859465 5.901644764311084
377 95 1 0.0 10.749706983566284 18.811987221240997 5.374853491783142
378 95 2 0.0 10.755689746374697 18.814164057992258 5.407231968219181
379 95 3 0.0 10.749706983566284 18.811987221240997 5.874853491783142
380 95 4 0.0 10.763147894069325 18.824660543096048 5.886247000262667
381 96 1 0.0 16.124560475349426 18.811987221240997 5.374853491783142
382 96 2 0.0 16.1450058583795 18.82408706226135 5.387171830204099
383 96 3 0.0 16.124560475349426 18.811987221240997 5.874853491783142
384 96 4 0.0 16.128430977255675 18.828251421110117 5.914200650247894
385 97 1 0.0 0.0 0.0 8.062280237674713
386 97 2 0.0 0.028699326935232312 0.04701077765522854 8.100843951744798
387 97 3 0.0 0.0 0.0 8.562280237674713
388 97 4 0.0 0.021505618330561062 0.037836614039569505 8.57429920643667
389 98 1 0.0 5.374853491783142 0.0 8.062280237674713
390 98 2 0.0 5.384003241932191 0.023310898956149184 8.079053017381016
391 98 3 0.0 5.374853491783142 0.0 8.562280237674713
392 98 4 0.0 5.386689312907963 0.04072680035485271 8.569503855044308
393 99 1 0.0 10.749706983566284 0.0 8.062280237674713
394 99 2 0.0 10.766952598509107 0.0072673290990329376 8.09630513985192
395 99 3 0.0 10.749706983566284 0.0 8.562280237674713
396 99 4 0.0 10.753747026477987 0.002195311292900054 8.593836037836873
397 100 1 0.0 16.124560475349426 0.0 8.062280237674713
398 100 2 0.0 16.165375260058305 0.042137777116627195 8.098650390734884
399 100 3 0.0 16.124560475349426 0.0 8.562280237674713
400 100 4 0.0 16.12755206806798 0.03745900453719065 8.600793151620453
401 101 1 0.0 2.687426745891571 2.687426745891571 8.062280237674713
402 101 2 0.0 2.7093288809305762 2.7273693150239033 8.096579133157487
403 101 3 0.0 2.687426745891571 2.687426745891571 8.562280237674713
404 101 4 0.0 2.71592064400479 2.7356535003501636 8.610378666328819
405 102 1 0.0 8.062280237674713 2.687426745891571 8.062280237674713
406 102 2 0.0 8.078771673175988 2.72699675034912 8.106244143868349
407 102 3 0.0 8.062280237674713 2.687426745891571 8.562280237674713
408 102 4 0.0 8.07820449367148 2.7090029807745637 8.58439760184125
409 103 1 0.0 13.437133729457855 2.687426745891571 8.062280237674713
410 103 2 0.0 13.460136228375099 2.721737477555658 8.092084001155236
411 103 3 0.0 13.437133729457855 2.687426745891571 8.562280237674713
412 103 4 0.0 13.450715423016932 2.6998348101237797 8.599376606259415
413 104 1 0.0 18.811987221240997 2.687426745891571 8.062280237674713
414 104 2 0.0 18.85270450129208 2.735121035604616 8.11073487798462
415 104 3 0.0 18.811987221240997 2.687426745891571 8.562280237674713
416 104 4 0.0 18.821513930515636 2.6975273684161114 8.611373842208703
417 105 1 0.0 0.0 5.374853491783142 8.062280237674713
418 105 2 0.0 0.02676696073168229 5.4000716644524855 8.10052833269772
419 105 3 0.0 0.0 5.374853491783142 8.562280237674713
420 105 4 0.0 0.007121592164238084 5.384786902669692 8.60458334432264
421 106 1 0.0 5.374853491783142 5.374853491783142 8.062280237674713
422 106 2 0.0 5.401873088250749 5.4195472072555875 8.065445926568731
423 106 3 0.0 5.374853491783142 5.374853491783142 8.562280237674713
424 106 4 0.0 5.410741771960849 5.3809838104276295 8.591211268205969
425 107 1 0.0 10.749706983566284 5.374853491783142 8.062280237674713
426 107 2 0.0 10.791663543365921 5.378589903495945 8.093491764730974
427 107 3 0.0 10.749706983566284 5.374853491783142 8.562280237674713
428 107 4 0.0 10.784612072207954 5.395329803571082 8.581395618332731
429 108 1 0.0 16.124560475349426 5.374853491783142 8.062280237674713
430 108 2 0.0 16.133506040602207 5.398774726364303 8.07320325532633
431 108 3 0.0 16.124560475349426 5.374853491783142 8.562280237674713
432 108 4 0.0 16.146026015596856 5.414594487465667 8.585858094206264
433 109 1 0.0 2.687426745891571 8.062280237674713 8.062280237674713
434 109 2 0.0 2.727723228892988 8.092816982317169 8.072086525289066
435 109 3 0.0 2.687426745891571 8.062280237674713 8.562280237674713
436 109 4 0.0 2.6994495562582097 8.092643257961388 8.609210289407697
437 110 1 0.0 8.062280237674713 8.062280237674713 8.062280237674713
438 110 2 0.0 8.073277183646027 8.087926571242411 8.083148275705938
439 110 3 0.0 8.062280237674713 8.062280237674713 8.562280237674713
440 110 4 0.0 8.064318904932357 8.063414639723668 8.601850265849361
441 111 1 0.0 13.437133729457855 8.062280237674713 8.062280237674713
442 111 2 0.0 13.461971278418554 8.098520099863048 8.091571369127841
443 111 3 0.0 13.437133729457855 8.062280237674713 8.562280237674713
444 111 4 0.0 13.473016586836032 8.085916384207286 8.6007759493886
445 112 1 0.0 18.811987221240997 8.062280237674713 8.062280237674713
446 112 2 0.0 18.848664287128482 8.098937719270864 8.07228026544891
447 112 3 0.0 18.811987221240997 8.062280237674713 8.562280237674713
448 112 4 0.0 18.82252852954779 8.065992144006245 8.578283124853012
449 113 1 0.0 0.0 10.749706983566284 8.062280237674713
450 113 2 0.0 0.03681396472206906 10.75068455145034 8.099578726558958
451 113 3 0.0 0.0 10.749706983566284 8.562280237674713
452 113 4 0.0 0.04847039928681151 10.784801053426182 8.597121543346317
453 114 1 0.0 5.374853491783142 10.749706983566284 8.062280237674713
454 114 2 0.0 5.385861968020775 10.797843720999815 8.0715550149715
455 114 3 0.0 5.374853491783142 10.749706983566284 8.562280237674713
456 114 4 0.0 5.422557771974452 10.793106487388503 8.580023201873288
457 115 1 0.0 10.749706983566284 10.749706983566284 8.062280237674713
458 115 2 0.0 10.765406020929664 10.773339409290513 8.065036387110737
459 115 3 0.0 10.749706983566284 10.749706983566284 8.562280237674713
460 115 4 0.0 10.76634203671066 10.777015853060952 8.562529012805278