LAMMPS data file via write_data, version 23 Jun 2022, timestep = 5500067

1550 atoms
5 atom types
150 bonds
3 bond types

8.830132606763332 51.169867393226816 xlo xhi
8.830132606763332 51.169867393226816 ylo yhi
8.830132606763332 51.169867393226816 zlo zhi

Masses

1 39.748
2 0.2
3 39.748
4 0.2
5 39.948

Atoms # full

519 369 5 0 10.346647722777929 13.113193309428054 10.23326254204088 1 0 1
1396 1246 5 0 11.7150330465596 9.96263272768902 11.675892215558699 0 0 1
1119 969 5 0 15.067692911382544 10.931532881229536 12.485546921581063 0 0 0
797 647 5 0 18.723267666401096 10.827601624405624 11.139530313244203 1 1 1
1054 904 5 0 14.953889349437057 9.079430040023658 9.371024951670636 0 0 0
971 821 5 0 19.45098157240323 14.246795505561177 12.629054486371425 0 0 1
1462 1312 5 0 22.404026487591462 11.675861029213381 12.420289362142364 1 0 0
1539 1389 5 0 22.83344517884657 9.90485258072592 9.195468219829493 0 1 0
582 432 5 0 26.469864348144895 10.384407034729033 10.644650573544668 0 1 0
632 482 5 0 27.244858416615134 13.639145907640057 11.994758516249362 0 0 0
1357 1207 5 0 29.101819073863677 10.28266528820552 13.696543945289687 0 0 1
262 112 5 0 12.307026949552652 16.849622840005075 12.077149794476597 1 0 1
513 363 5 0 17.716733187652107 15.219298264124577 9.046907958766399 1 1 1
743 593 5 0 15.44378206315069 17.861541549327995 10.349895480468016 0 0 0
821 671 5 0 19.2858109793848 17.91290787121616 13.495571559191072 0 0 0
231 81 5 0 23.015161195203067 16.00043039125175 13.193787948808291 0 0 0
1349 1199 5 0 20.19882692923403 17.684533368910444 10.095109427538713 0 0 0
367 217 5 0 24.770487338820285 18.512363474851018 10.523951534684555 0 0 1
1305 1155 5 0 27.149669102157656 17.27096495667035 13.266210904145566 0 0 1
397 247 5 0 28.257216053487745 16.53766070911995 9.622380036372935 0 0 0
1033 883 5 0 11.454670729057295 21.228529813328866 10.580752244258466 0 1 1
298 148 5 0 9.151434397598676 21.222735832005526 13.311550040819833 0 0 1
646 496 5 0 10.71713402618557 24.66333450123418 11.981591896681765 1 0 0
940 790 5 0 14.434090419401118 21.407271549255693 12.180463133056593 -1 0 0
1397 1247 5 0 17.940993351530953 21.271642729210125 9.463310121007758 1 0 1
1436 1286 5 0 19.401165383583894 24.681848967465545 9.192063684076697 0 1 0
611 461 5 0 20.082590394114096 23.92917363333846 13.107080662445346 0 0 0
1012 862 5 0 21.411784033538822 20.718435440811575 11.34506810034446 0 1 0
1206 1056 5 0 24.24304089989374 20.22984444228557 13.634905700797692 0 -1 0
440 290 5 0 22.94188780909857 24.43881269847325 10.344473984989458 0 0 1
443 293 5 0 28.166985903333032 20.429208258779255 10.431303289607762 0 1 2
273 123 5 0 26.629425442417176 23.054101458796794 12.97418217758988 1 1 1
785 635 5 0 10.788847839272968 27.779149354739786 10.298115678990696 0 0 -1
1405 1255 5 0 13.864813364521364 25.31656076644795 10.786179916979833 0 0 1
517 367 5 0 16.590461124759784 24.890527012678152 13.589756621321403 0 0 1
939 789 5 0 16.72112893599038 28.718376298327176 13.360210038558355 0 0 0
1083 933 5 0 17.290188395770297 28.19483258771136 9.200259999824514 1 1 0
322 172 5 0 20.554161287446473 28.00881825478466 12.179103078007099 0 1 1
507 357 5 0 24.28147412486232 29.709937940706244 13.800264211940956 0 -1 0
1022 872 5 0 24.447889683598973 27.463104353164866 11.086450500426643 1 0 0
1233 1083 5 0 29.347387952360467 27.922372011123937 12.249355734104832 0 0 0
1428 1278 5 0 27.583421342155944 25.29595393838799 9.137326812733145 0 1 0
619 469 5 0 9.593789614465454 11.281924517385464 14.652661806356114 0 0 0
597 447 5 0 13.881033315510598 12.894488719288082 17.91612849533753 0 1 0
1151 1001 5 0 10.491677486394188 10.915515382154119 17.959767970754008 1 1 1
527 377 5 0 17.513182388961372 10.862692545528454 17.518364068927326 0 1 1
537 387 5 0 15.417783590704818 13.925582016743352 14.70493218486217 0 1 0
901 751 5 0 19.8670298898658 10.868892469320244 15.012037475322375 0 1 -1
350 200 5 0 22.439487066493 9.961848443472292 17.188675030566774 0 0 0
1456 1306 5 0 22.334282769201707 13.817991022634166 15.89580062255305 -1 1 1
1146 996 5 0 25.6913241808452 10.982779223013205 14.808026715106958 0 1 0
450 300 5 0 26.17652413059975 11.426040423716199 17.949175695976095 0 1 1
854 704 5 0 11.761732420404023 14.119063572689575 14.287890791404484 0 0 1
700 550 5 0 12.506858616015396 16.545152603254103 17.598687759289625 1 0 -1
665 515 5 0 9.035971182489826 15.158292896743237 18.322467325285068 0 0 1
716 566 5 0 9.482512032075268 17.703585023621443 15.63763919963345 0 0 1
650 500 5 0 18.198965758720956 18.55475373278853 16.938449455766804 0 0 0
683 533 5 0 16.186818075110857 15.626991019089656 17.706534022192663 1 0 0
1306 1156 5 0 14.943032547234884 19.317490258526423 19.128589479505983 0 0 0
1448 1298 5 0 24.028761650466354 17.74035101481739 17.04519384238464 1 0 1
1147 997 5 0 20.549408358641635 16.55703465896693 18.241232416162706 1 0 0
1238 1088 5 0 26.854757797262135 14.40346311808061 15.524572668543428 0 1 0
1259 1109 5 0 28.019068762054363 18.3006410873565 16.319874177744364 0 0 0
1059 909 5 0 28.500177719241407 15.699864566429461 18.50372105750483 0 1 -1
605 455 5 0 29.490728145792062 19.603007571740424 19.162588393440615 0 1 0
529 379 5 0 12.692238275546226 19.459879453165755 14.9711170327703 0 1 1
1523 1373 5 0 10.74607232001427 19.9096516243603 18.319578863217856 1 1 1
1133 983 5 0 9.849595279916787 23.5874132986096 18.672874808465338 1 0 0
1344 1194 5 0 12.32079452142787 23.26050008227167 15.686269072359755 0 0 -1
287 137 5 0 14.534346629772388 23.2538713901536 18.917590907736532 0 0 0
1413 1263 5 0 15.948509129609606 21.130131973830462 16.33634654906443 0 1 0
1128 978 5 0 19.150452819119813 22.148076973856885 18.889060993085813 1 0 1
1532 1382 5 0 21.34707915976027 19.593434279572627 15.445448974834461 0 0 0
1035 885 5 0 23.153232577345356 23.60773652704951 15.546669801114167 1 0 0
534 384 5 0 22.98489744300109 23.10747310402887 19.184175030141905 0 0 0
1225 1075 5 0 29.671739257980803 22.12501867049689 17.014111992487436 0 0 0
1470 1320 5 0 25.852876327740702 21.430804960849585 17.177732233393087 0 0 0
1261 1111 5 0 11.589213991630963 26.998208971070156 14.263737639255504 0 0 0
1216 1066 5 0 12.428898029384387 26.69828011914485 18.872428419846777 1 0 1
1112 962 5 0 10.178854836236935 29.265681536521598 17.452063220370277 0 -1 0
712 562 5 0 18.933797220159107 28.89906190982005 16.09388751028985 0 0 0
211 61 5 0 15.200879778102863 27.314174613098277 16.368712715925152 1 0 0
1326 1176 5 0 18.629354521084633 25.42420205061417 16.67156991875532 1 1 0
957 807 5 0 22.07019999469689 26.74777307814861 15.120325193071011 0 0 1
544 394 5 0 21.697737860572893 26.85221988966073 18.928163742498505 -1 0 0
965 815 5 0 26.640413470615037 25.294013004059153 16.611776443824464 0 1 0
380 230 5 0 25.20207992225424 28.576508461681133 17.44439387980732 1 0 0
807 657 5 0 13.564384506924398 10.140565381635872 20.683118550246473 0 0 0
291 141 5 0 11.537916272197641 13.900295781051998 20.814700246588426 0 0 0
1260 1110 5 0 11.26338031574185 11.43819773787775 24.470396891803222 1 0 0
266 116 5 0 16.639803311011526 12.428715842066682 20.738584669929747 0 0 0
1299 1149 5 0 17.475935523822347 11.096904361556723 24.489704808872204 0 0 0
10 3 2 0.5 20.562481137636617 12.557324543915623 19.593049861552934 0 0 0
9 3 1 0 20.561844356004404 12.559606411147893 19.597589333192147 0 0 0
1139 989 5 0 19.96118432689638 9.689109074070663 22.221568410923766 0 1 1
11 3 3 0 20.17232079034512 12.66076111637713 19.894486024806735 0 0 0
12 3 4 -0.5 20.17010401073905 12.671979176615986 19.9052392853817 0 0 0
285 135 5 0 23.80978937588778 11.453058011546178 22.881984223121556 0 0 0
1177 1027 5 0 27.213072684879506 9.369903859965362 20.693258052852187 -1 1 0
1418 1268 5 0 28.67076099282664 13.37995651268903 21.65444374709659 -1 0 0
973 823 5 0 9.994518558514178 17.14917068944735 20.936811162883156 0 0 1
726 576 5 0 13.493990939981808 18.07502416613211 22.037077045169312 1 0 1
947 797 5 0 9.216956251429473 15.091638657429648 24.043642175795412 0 0 0
577 427 5 0 9.841095773893949 19.0826391413244 24.242602798846104 0 1 0
1235 1085 5 0 16.388167416950168 15.766867541874799 21.153577221154396 0 0 0
1530 1380 5 0 17.365586508112283 17.80676859261492 23.899565818519388 0 1 1
232 82 5 0 19.132586928206305 18.579481235455923 20.90198330725776 0 0 0
444 294 5 0 24.403978126539844 14.634845365718638 19.5540658700258 0 0 0
70 18 2 0.5 20.210093342919365 14.604418919103614 22.319939779337947 0 0 0
69 18 1 0 20.213485413254404 14.62542879988728 22.32972337952425 0 0 0
71 18 3 0 20.141687901046534 15.037633203491996 22.603628599830323 0 0 0
72 18 4 -0.5 20.15384937998814 15.049396137694583 22.6091539513987 0 0 0
102 26 2 0.5 21.803758601253964 17.607312447158566 23.674816724075782 0 0 0
101 26 1 0 21.80942942735639 17.611790818948254 23.675417936662747 0 0 0
103 26 3 0 21.88262508101123 17.997062275961753 23.985311434130605 0 0 0
104 26 4 -0.5 21.886615524594685 18.004819370101092 23.991666339409694 0 0 0
814 664 5 0 25.251755014519592 15.245283464807983 23.55635047921014 0 0 0
1459 1309 5 0 29.609041677659608 16.797265833799415 21.937474053311558 0 1 0
1068 918 5 0 25.98360351019574 17.92012412123597 20.04991656624046 0 0 0
1550 1400 5 0 12.288338725699049 21.349441099453816 21.101833663099807 1 0 0
1170 1020 5 0 11.342731323106255 22.854965588880038 24.354639512034552 0 0 0
654 504 5 0 14.91361860629642 22.037756345186306 24.024758285031435 0 0 0
921 771 5 0 22.416522776235094 19.492334362420756 20.052931633143164 0 0 0
358 208 5 0 21.147164038003048 22.745419382825435 21.962438227119236 1 0 0
904 754 5 0 23.865996836530165 21.09668059084027 24.183934092920534 0 -1 0
309 159 5 0 28.572270130140424 20.152142994348765 23.76401610386519 0 0 0
1200 1050 5 0 25.977229561437152 24.676063982636823 22.616119757875584 0 0 0
496 346 5 0 26.00418424530906 21.25059916205977 21.08490709214317 0 0 1
1089 939 5 0 27.758515575246445 24.07181320204337 19.783723927352817 0 0 0
721 571 5 0 10.505667525710779 25.36823744403797 21.58336843484558 0 0 0
1258 1108 5 0 9.630524591370873 29.1878437458985 21.075810189304775 0 0 0
1469 1319 5 0 13.924734479953047 28.697185884787146 22.527748916192294 0 0 0
1410 1260 5 0 13.613272399219154 25.967844371695424 24.415030679702987 1 0 1
574 424 5 0 15.341823683695091 29.50833619502178 19.54767564361152 1 0 0
1142 992 5 0 15.909558333899927 25.715854070468406 21.71950910174995 1 0 0
606 456 5 0 18.022920131114613 29.625292273754848 22.565179226559184 1 0 0
1513 1363 5 0 19.33229525382307 26.240847140069626 24.193643423754896 0 0 0
1490 1340 5 0 22.427156171056396 27.983005814021347 22.51712000743109 0 0 1
896 746 5 0 25.193185453010567 28.12722002419933 24.527713706088647 0 0 0
1367 1217 5 0 26.06017148228571 28.00930088713254 20.923273107621277 -1 1 1
1188 1038 5 0 29.475365807122106 26.021686132205645 22.865496561474803 0 0 1
1165 1015 5 0 28.956481430378464 29.37597604992294 23.026843977070357 0 1 0
62 16 2 0.5 10.60943949911341 9.68293540056378 29.088197461757208 1 0 0
63 16 3 0 10.90424033940532 9.86271134934398 29.45200858630974 1 0 0
64 16 4 -0.5 10.905194097103978 9.861896107112727 29.456506349594672 1 0 0
61 16 1 0 10.609562212430198 9.692157144407107 29.08563639114567 1 0 0
877 727 5 0 11.593961224386895 13.737277331879715 28.34755880758902 1 1 0
306 156 5 0 14.8938322782212 12.606254314200044 27.63553222489712 0 0 1
295 145 5 0 18.353581406394618 12.445161610507157 28.452763349029468 0 1 0
868 718 5 0 14.902569977003813 9.373848630570512 26.912967717213064 0 0 0
1455 1305 5 0 23.40602101737356 13.543249300484012 26.626042030902525 0 1 0
449 299 5 0 24.15287955007364 9.490179685024986 27.546718340224906 -1 0 0
471 321 5 0 22.2009975603092 11.440930783366307 29.749560963570598 0 0 0
734 584 5 0 28.362689760642716 12.865400567855854 25.990713884837024 -1 0 1
1482 1332 5 0 28.359162618391704 8.953529164644577 26.99546499469273 0 1 0
832 682 5 0 11.666890514413792 17.598514410782126 28.644951286003856 1 0 0
653 503 5 0 12.912771133792932 15.539146008410965 25.02332296308041 1 0 0
1036 886 5 0 16.448490808069213 16.649308642784096 27.336347372909657 0 0 0
319 169 5 0 20.016896752813338 14.691852099235405 26.059367300879586 0 0 0
1262 1112 5 0 22.768026875257288 16.86833646656287 28.01842564528667 0 1 0
1079 929 5 0 25.69190692910852 18.217950764618 25.47376306785315 0 0 0
528 378 5 0 27.716323981695496 15.534673346032118 28.03889923793444 0 1 0
1183 1033 5 0 27.911548143670554 29.692850305923876 26.404348398871054 0 0 -1
1222 1072 5 0 12.533646342840415 22.969733586338197 27.488279500285252 0 1 0
1384 1234 5 0 16.46258006494684 24.89477706630346 26.61455877364083 0 0 0
1404 1254 5 0 17.37564193610591 20.21717937455337 27.73904309048098 0 0 -1
864 714 5 0 19.56475006368574 21.093443108279164 25.14345419229047 1 0 0
1285 1135 5 0 20.079699092937847 23.147832264331797 27.91100131796778 0 0 0
979 829 5 0 22.969187412712998 24.25072231292341 25.327846918382768 1 -1 0
781 631 5 0 24.25972552966662 20.279380109760364 28.571497288587462 0 0 -1
975 825 5 0 19.862749022704254 19.978648998236167 29.9796220733613 0 0 -1
223 73 5 0 25.83130979976074 23.381842535118654 27.038736490624743 1 0 0
1401 1251 5 0 28.57364034971776 20.05635124252524 27.280611594996227 0 1 0
303 153 5 0 29.732460561627157 22.920628451918162 29.127734202715583 0 1 0
1457 1307 5 0 9.156891931239512 26.368444472468603 24.969594057572618 1 0 0
1495 1345 5 0 9.215465468403798 28.977179016906362 28.299774292514282 1 0 0
900 750 5 0 10.555546575023708 25.56490784840208 29.47403436957857 0 0 1
1430 1280 5 0 11.722734373009237 29.167134074070763 25.779627726547016 1 0 0
696 546 5 0 14.200046567836447 25.687285630709734 29.107741180979577 1 0 0
368 218 5 0 17.189333278334665 28.66343632173144 25.99676425386242 1 0 0
987 837 5 0 21.831538986804578 27.879467002224533 26.028741491424725 0 0 0
1046 896 5 0 22.29819521410628 26.43177229736799 29.06754871428881 0 0 0
1251 1101 5 0 19.627780428610226 29.118654799100412 29.1398636816278 0 0 0
337 187 5 0 29.13024154402665 26.048212347856122 28.00456559340286 0 -1 1
354 204 5 0 25.237717393317862 28.606934737384467 28.37212145930622 1 -1 0
381 231 5 0 29.772236580509247 10.478218523046772 23.440832249588734 0 0 0
542 392 5 0 19.90574399062406 8.838981211844512 26.38201355198183 0 0 -1
762 612 5 0 11.347121157889314 11.737265731210067 32.640450990712324 0 0 0
754 604 5 0 14.602190097659127 9.748732248598428 30.448504935039185 0 0 1
1162 1012 5 0 15.925436995983192 13.55873600564018 33.81835792046731 1 1 0
1257 1107 5 0 17.782084797561897 10.741237598971454 32.75544106916892 0 0 0
609 459 5 0 21.894106157932654 9.543214860472983 33.58934236556382 1 0 0
396 246 5 0 21.22144288587195 13.431138431283358 33.375581452064964 0 0 0
546 396 5 0 25.792685673697367 11.417634584352589 34.212947908732104 -1 0 0
219 69 5 0 28.840950852597995 9.586506243950396 32.50300442000147 0 0 0
1166 1016 5 0 26.586244315964286 12.182386461873326 30.419237434890146 0 1 -1
588 438 5 0 9.848371412411637 15.732865886196961 31.374509230675432 1 1 0
237 87 5 0 10.21317113653508 15.723478210677674 35.22153586362779 1 0 1
845 695 5 0 10.763304017312302 19.237854787168658 34.296353793849654 1 0 -1
235 85 5 0 13.903027353271867 17.252243276278627 34.618939467798704 1 0 0
859 709 5 0 14.478240989490105 15.661541741207083 31.019563570965204 0 0 0
1412 1262 5 0 18.389753032491864 14.932665288846742 30.63624577785438 0 0 0
1441 1291 5 0 17.494631972254123 16.579236952836578 34.081254567497574 -1 0 1
977 827 5 0 24.232325188798743 15.992675747060407 31.390156317599093 -1 0 0
1538 1388 5 0 20.73294158068159 17.116712323729004 31.95348918957972 0 0 0
713 563 5 0 24.893858866109067 18.745287677851632 33.665850871885496 0 0 0
428 278 5 0 27.490448102209132 15.480260898416576 34.88530837956437 0 1 0
1364 1214 5 0 27.186243777594843 18.864281493622137 30.68960939543609 0 0 0
1042 892 5 0 12.96204837726458 23.83215255711378 33.4287454290272 0 0 0
873 723 5 0 14.464187839267618 20.052603087916044 31.920454451012066 0 0 0
1547 1397 5 0 17.048669518903655 23.01247998052404 31.53071963173845 1 0 0
357 207 5 0 20.284314472735485 19.690298638491587 35.125744165382024 0 0 1
1221 1071 5 0 19.573303054394486 23.280689342491904 34.92681817216536 1 0 0
995 845 5 0 22.211865623883323 21.689791257453038 32.21723800619458 0 0 -1
1313 1163 5 0 22.809928611641613 24.63415097320666 35.07935453614509 0 0 -1
1519 1369 5 0 26.75181764051894 23.981515060526693 34.764945080232465 0 1 0
1140 990 5 0 10.356171524115544 26.911931611404835 34.350858217449584 0 0 0
776 626 5 0 12.321609970638717 28.68575766849673 30.390458307058424 0 1 0
254 104 5 0 15.29068207225527 27.157656937504385 32.07415111034488 1 0 0
1167 1017 5 0 18.35243180179204 28.49179908685244 32.6658570497058 0 0 0
218 68 5 0 20.168410734238066 25.38506307792797 31.861127146746455 0 1 0
1173 1023 5 0 21.915056585649378 28.25059631199977 33.029680102434305 0 -1 -1
1360 1210 5 0 25.946030319143517 25.68371400390135 30.180475291344163 -1 0 -1
1473 1323 5 0 28.862289440014376 25.09388780390557 32.11981391593681 0 0 0
1275 1125 5 0 25.61519985486021 27.584399793191807 33.907630118854925 0 1 0
1062 912 5 0 11.815367425810368 10.623743876158832 38.00559417322736 0 0 0
275 125 5 0 9.507463770512873 12.339140618642139 35.61291068438254 0 1 0
715 565 5 0 14.391255145162907 10.728488284346616 35.33964848624408 0 1 0
531 381 5 0 18.722832376801502 11.763137111520495 36.029251686206415 0 0 0
1058 908 5 0 16.708913228514845 10.134256947618105 39.155665770695144 1 0 0
536 386 5 0 20.21763653780582 13.328784230811426 38.898551327817955 1 0 0
849 699 5 0 23.258972289809755 11.15723787037235 37.51162336384835 0 1 0
1263 1113 5 0 29.101116399808713 10.072946238688658 36.57932268017508 0 1 -1
1067 917 5 0 27.01314211942671 13.304464474065643 37.728902203458325 0 0 -1
911 761 5 0 26.105680418180857 9.05575879457202 38.73638307247703 0 1 -1
490 340 5 0 12.940546142877979 14.221727484343724 38.16668043274214 0 0 0
1218 1068 5 0 9.309237551634341 19.32779869169407 39.225815517970695 0 1 0
277 127 5 0 12.74820009106919 17.71657001690643 38.61149587403602 0 1 0
314 164 5 0 16.47733507417248 14.661363736998203 36.86273019619366 1 0 0
572 422 5 0 17.419555251776444 16.27926037721832 40.56257333857866 1 0 0
1507 1357 5 0 16.666658789024726 19.171987381362552 36.20235332149828 1 1 0
1522 1372 5 0 19.571594477627258 16.62503305081417 36.931021354697656 0 0 0
675 525 5 0 24.09438935570313 14.5705658640709 38.855612159508816 1 1 0
360 210 5 0 23.029228545500768 15.503647860812473 35.67636705732909 0 0 0
1108 958 5 0 26.35665692328283 17.58237860111541 37.76387774610259 -1 0 -1
728 578 5 0 28.28729149691968 29.692512196053126 45.89231083738585 0 0 0
1241 1091 5 0 26.185576331647088 29.778127535412175 48.97586982924642 0 0 0
875 725 5 0 10.124645830828827 23.593860505944132 36.011648919028396 0 0 0
503 353 5 0 13.174027068541006 20.853731802839672 36.50090495027568 0 0 0
1113 963 5 0 15.372647634822535 23.647780461089177 36.01860275105015 0 0 0
578 428 5 0 15.425547558165889 19.866772949911095 39.276069749909375 0 0 0
970 820 5 0 14.19246337950791 23.328665286527198 40.44198902181366 1 -1 -1
439 289 5 0 19.97130476991001 20.53173826855627 38.42428747986799 0 0 0
516 366 5 0 22.061772097165537 23.40344644221609 38.524855242253516 0 0 0
555 405 5 0 24.18760007085591 20.954786499671947 37.01426322213394 1 0 1
1381 1231 5 0 28.141183372842015 20.134996388915308 35.535169117488515 1 1 0
1098 948 5 0 24.88886829756041 20.292115043059162 40.33613643410807 0 1 0
903 753 5 0 29.029832813346655 21.364050063562583 38.691067077637435 0 0 0
208 58 5 0 11.61576713464336 25.95929806557914 38.550391904118435 0 0 0
299 149 5 0 13.972463715915696 27.121720654880193 35.44470846978661 1 0 0
890 740 5 0 13.055260854410665 29.687374264466754 38.142729203344246 0 -1 0
640 490 5 0 17.979811182442017 27.140370805384837 35.825680251989525 0 0 0
961 811 5 0 15.851773516855596 27.34893998912415 39.32345256855473 0 0 0
732 582 5 0 19.1885468929618 29.730547836469125 39.603267701345516 0 0 0
446 296 5 0 21.151716003387076 28.27830413812057 36.87619236312299 1 -1 0
1039 889 5 0 23.96848540062776 26.869006629788867 38.19063403624831 1 0 0
376 226 5 0 27.83650929572445 26.910888546320223 37.24034125415986 0 0 0
745 595 5 0 10.409439644726707 10.885264400668497 41.93434559403074 0 1 0
1049 899 5 0 10.477037207260219 12.177734859592581 45.120442942081425 0 1 0
657 507 5 0 14.8577234903738 12.613881268433737 41.239256025383455 0 0 0
662 512 5 0 14.198345884864304 9.37295908767145 43.40910308777868 1 0 0
1029 879 5 0 17.427775744013026 10.882785003975394 42.84518031306723 0 0 1
1145 995 5 0 15.146699011760846 12.951331853891938 44.86763232216792 0 0 0
333 183 5 0 19.279128117828645 13.772206458822296 42.208603823183644 1 0 0
1073 923 5 0 20.90990914789135 10.671245962508554 44.58231388086263 0 0 0
1369 1219 5 0 22.422533059132192 12.15354126977816 41.71243318074358 0 1 0
885 735 5 0 26.75543019972197 8.842224123835832 45.501678582768186 0 0 0
841 691 5 0 26.421485515489934 10.998768364870811 42.649997259068655 0 0 0
1053 903 5 0 9.194609327070964 17.7817425718095 42.607396040573434 0 0 0
290 140 5 0 11.003531529962183 14.825880946271539 41.53181736585622 1 0 -1
1354 1204 5 0 14.656095492484013 16.06646881483302 42.73091504217361 1 0 0
457 307 5 0 19.647625340350764 17.41589370210587 44.162334072171014 0 0 0
727 577 5 0 16.5237275131968 19.335479731010782 43.50671820079996 -1 1 -1
658 508 5 0 21.553310015216276 15.958972584961082 40.979122849001264 0 1 0
986 836 5 0 19.43180776592667 14.059990597936398 45.86010182814255 0 1 -1
1425 1275 5 0 22.67605675734249 15.135693342788871 44.143167115850986 0 0 0
1409 1259 5 0 23.58311702381448 18.460323586981485 43.34106949028682 0 0 0
109 28 1 0 29.61488754984758 15.201046473232322 40.62700292850042 0 0 0
110 28 2 0.5 29.620083983695913 15.215294148249946 40.60233546598914 0 0 0
40 10 4 -0.5 29.141119992314987 14.040933415680128 44.67469997757927 0 0 0
39 10 3 0 29.140236201940784 14.05460805498993 44.65345199791433 0 0 0
37 10 1 0 28.978949187787535 14.213766084985334 44.20802181847703 0 0 0
38 10 2 0.5 28.974652056984954 14.227074161858482 44.189342578060256 0 0 0
112 28 4 -0.5 29.62492589194196 15.01508427856421 41.12535111661352 0 0 0
111 28 3 0 29.632688878445787 15.036514087070266 41.09867010378433 0 0 0
293 143 5 0 25.434617744936297 15.031217835855367 42.152765617263306 0 0 0
1274 1124 5 0 27.882958007495834 18.725929396989343 41.37298571323725 0 0 -1
465 315 5 0 28.15833565103347 18.302308238248763 44.84145597056171 1 0 -1
1192 1042 5 0 11.86027191075668 20.28935849405631 41.691194272662386 0 1 0
1102 952 5 0 11.928941914553562 23.16022051962164 44.886755196930196 0 0 0
243 93 5 0 17.865586778918512 22.46517625946728 42.050758001874655 0 0 0
1290 1140 5 0 15.377524467832153 22.579038477831393 44.72469292230231 0 0 -1
1379 1229 5 0 20.682567101939814 20.23988539530065 42.43762947200265 1 -1 0
525 375 5 0 22.94554503204196 23.365003680026465 41.95107116558992 0 0 0
1116 966 5 0 22.252092018467533 22.019462846684466 45.25641864597261 0 0 -1
666 516 5 0 19.595621895260066 24.66641489718883 44.5455543490546 0 1 0
1403 1253 5 0 24.508313211252354 24.322643436722796 44.985854973431906 1 0 -1
1486 1336 5 0 27.01281762204771 24.34837545689754 41.09578907267003 0 0 0
403 253 5 0 26.091608448112797 21.551843381615353 43.81030396208102 0 1 0
1011 861 5 0 28.89366996700542 24.09288666581374 44.57365518125325 0 0 -1
1038 888 5 0 12.408426173070666 29.92346784412251 45.569371077751946 1 0 0
915 765 5 0 9.107231344597983 29.525521869091715 43.10971126513688 1 0 0
1153 1003 5 0 8.911509491443566 26.25507907867222 41.566280649073846 0 1 0
1152 1002 5 0 13.252256225040506 28.598423154009048 41.989194290594135 1 0 0
483 333 5 0 29.959721796492 28.3505275870451 34.31750228721195 1 0 0
313 163 5 0 15.199310802672414 26.499710729177433 44.43995513526251 1 1 0
692 542 5 0 18.525580964076337 26.56405045822615 41.24443538269149 1 0 0
980 830 5 0 19.915673411994693 28.485545126549113 45.00697227715571 1 0 0
352 202 5 0 23.394824471706478 27.1886472449768 43.54263463643241 1 0 0
1164 1014 5 0 26.09675034327981 29.75318924332465 40.65617413761769 0 0 -1
370 220 5 0 27.595083765427386 26.99502768592775 43.478189012861264 0 1 0
1091 941 5 0 9.485274461868208 9.054235648220763 47.14326943275717 0 1 -1
1191 1041 5 0 13.654179492190211 10.944914253904617 47.296585773907715 1 1 0
530 380 5 0 10.095130060965399 12.743226340041616 48.7624658156712 1 0 0
1060 910 5 0 11.582547063369116 8.831153943829626 50.29390924714972 1 0 0
599 449 5 0 14.146114802765162 12.872726849166758 50.20002698594073 0 1 0
1135 985 5 0 17.29536422020609 9.868207953365388 46.31317555384621 1 1 0
869 719 5 0 17.618569649390313 11.653666962106755 49.826531754229045 0 0 -1
247 97 5 0 22.689424032356303 9.293397231225077 47.91206885177403 0 0 -1
1203 1053 5 0 24.334104222942532 12.774672486132204 45.99183807831279 1 0 -1
748 598 5 0 21.246946811599962 13.193249616690627 50.8912191168264 0 1 -2
76 19 4 -0.5 29.823713785700367 12.078993121276913 51.00860576895038 0 0 0
249 99 5 0 25.714021192547516 9.644481141149832 48.92460570586845 0 0 0
804 654 5 0 25.812993941480308 13.393888882434709 49.765976952567364 0 1 -1
136 34 4 -0.5 29.01894014898692 12.857810850814346 47.743346560991775 0 1 0
135 34 3 0 29.02355759956113 12.852974947857135 47.7062106565363 0 1 0
133 34 1 0 29.088869862562625 12.74265955768469 47.22274858783602 0 1 0
134 34 2 0.5 29.09104321518478 12.73923121449713 47.18535567285775 0 1 0
73 19 1 0 29.491849747077506 12.292774109323068 50.663718992337195 0 0 0
74 19 2 0.5 29.47805213560465 12.294067412168808 50.63970027137164 0 0 0
75 19 3 0 29.81056892703894 12.080151255940107 50.98478579961009 0 0 0
1080 930 5 0 12.891778818874 16.0808785427392 46.4666667448663 0 0 -1
1092 942 5 0 11.742937541378824 15.809061790754022 50.67196217634282 0 1 0
580 430 5 0 29.232801557397128 29.37968336264316 50.931541934375375 1 0 0
1129 979 5 0 13.188707564139467 19.47500417863463 49.99701156967062 1 0 -1
1072 922 5 0 16.609626533772506 14.336890384072975 48.11460355566489 0 1 0
1172 1022 5 0 16.8444337630654 18.20582741792634 49.317871981349455 0 0 0
881 731 5 0 20.160829548688117 17.244895941055784 48.1153529092384 0 1 0
676 526 5 0 23.650945679704797 16.938725969924246 49.75059844956758 0 1 -1
614 464 5 0 29.672598440713063 16.86048529943328 48.1938800562329 0 1 -1
486 336 5 0 25.541373954912746 16.634935792467424 46.333368470868905 0 0 -1
535 385 5 0 26.967166382307376 18.81690891755069 49.433914329662414 0 0 -1
874 724 5 0 9.742954845636984 20.35539095739544 46.16544480925493 1 0 0
918 768 5 0 11.294549706076438 24.161502220397143 50.505267778697664 1 0 -1
603 453 5 0 19.31496350589728 20.166527955748 45.94730065638645 0 1 -1
800 650 5 0 15.163071040461691 19.31707877727513 46.67412030096397 0 1 1
677 527 5 0 14.61697314480431 22.585939084951637 50.576837263672964 1 0 0
1312 1162 5 0 17.213287580640795 22.180452493799873 47.87896915459268 0 0 -1
1333 1183 5 0 24.062888612757554 19.971447087137516 47.2158317060551 0 0 0
506 356 5 0 21.16162550961997 20.23707427226684 49.972993743407166 0 0 -1
1271 1121 5 0 24.496881293732113 21.569478176484825 50.90922594164218 0 0 -1
981 831 5 0 29.71344351601244 21.756547620074077 49.68242865287071 0 0 -1
1471 1321 5 0 26.76923761751072 22.701676429616374 47.67777147437208 1 0 0
769 619 5 0 13.393606262099286 25.478548230648062 47.93148353210782 1 0 -1
1460 1310 5 0 17.710892015177897 25.999384327621364 47.22232655504038 0 0 0
436 286 5 0 15.293914762304748 29.70778806555562 48.04767246763601 0 0 -1
799 649 5 0 24.136603105295794 26.57038559891729 50.05852389455345 0 0 -1
505 355 5 0 22.825071697003352 29.071640654489816 47.71648959657593 0 0 0
1451 1301 5 0 19.501841307034372 28.146158189541325 49.06751076051813 0 0 0
1407 1257 5 0 21.335399735261394 25.636348803724132 47.619969074293266 1 0 0
1298 1148 5 0 25.896959248390232 26.983476286706765 46.74829462393156 0 1 -1
560 410 5 0 29.299198515512362 25.33339515811312 48.27314007466802 0 0 -1
1371 1221 5 0 13.24448777305572 33.669491897355186 13.840355964814826 1 -1 1
818 668 5 0 9.546820989940578 33.527264357881414 11.281561200815023 0 0 0
953 803 5 0 13.339814896490378 30.846984121501205 9.570428525001153 1 0 0
1417 1267 5 0 9.700072380003023 30.502193842661526 13.093651121348712 0 0 0
321 171 5 0 16.826370570851747 31.201887397520323 11.172334516079287 0 0 0
1105 955 5 0 14.530020801545689 34.19337709411169 9.541308160107747 0 0 0
705 555 5 0 18.061476415968 35.152106726532416 9.295030051295784 0 0 1
255 105 5 0 20.29884227971616 32.24750923083144 12.017440955291017 0 0 0
703 553 5 0 24.20638144007576 32.93835948605154 9.946736248435412 0 0 0
1541 1391 5 0 22.623493780118306 30.028805120456184 9.05710876639348 0 0 1
1120 970 5 0 24.65431614902648 34.66825901483632 13.430918437480443 0 0 0
593 443 5 0 29.0957714178153 32.472641464137176 11.349601236675902 0 0 0
671 521 5 0 26.250089433793907 30.43442218407756 10.753939997621861 0 -1 1
892 742 5 0 12.82929455682637 37.76259353024646 11.876347540072238 0 0 2
492 342 5 0 10.005600195739115 37.07235222434223 9.405338671175906 0 0 1
922 772 5 0 10.771211104392274 40.406399264185154 9.868608480806008 1 0 1
149 38 1 0 16.384630246060453 39.46450959634043 12.242107410004456 0 -1 0
150 38 2 0.5 16.388998384078157 39.448248912665875 12.251212415769704 0 -1 0
151 38 3 0 16.055969789534565 39.653247370905795 11.916100393674602 0 -1 0
152 38 4 -0.5 16.051835280590826 39.66287136078106 11.913655409083676 0 -1 0
96 24 4 -0.5 17.121144941639 36.52671057731388 13.175884799949614 0 0 1
95 24 3 0 17.11760248689955 36.51024162993544 13.179966372918933 0 0 1
93 24 1 0 16.99006064471804 36.02688094161243 13.173484124821337 0 0 1
94 24 2 0.5 16.98953431920831 36.012665687345994 13.174092597174317 0 0 1
1084 934 5 0 20.11350490030152 38.238243264227165 11.06535557691459 0 -1 0
294 144 5 0 22.1920955713301 36.03105994826489 9.59446635396334 0 -1 1